* GENERATED BY CHARMM-GUI (HTTP://WWW.CHARMM-GUI.ORG) V3.7 ON JUN, 01. 2026. JOB
* GET A DIFFERENT CONFORMATION FOR LIPIDS PENETRATING PROTEIN / CHOL
*  DATE:     6/ 1/26      0:46:57      CREATED BY USER: charmm-gui
*
       363  EXT
         1         1  TIP3      OH2            14.2771989440      -33.0987511405       21.5666500000  TIP3      1               0.0000000000
         2         1  TIP3      H1             15.0472807802      -32.6420618830       21.2280700000  TIP3      1               0.0000000000
         3         1  TIP3      H2             13.7789692392      -32.4219387292       22.0248400000  TIP3      1               0.0000000000
         4         2  TIP3      OH2            15.8817049532      -35.4233350182       20.5438400000  TIP3      2               0.0000000000
         5         2  TIP3      H1             16.5671436590      -35.4350136949       21.2118700000  TIP3      2               0.0000000000
         6         2  TIP3      H2             15.6070961126      -34.5075325706       20.4977400000  TIP3      2               0.0000000000
         7         3  TIP3      OH2            -4.4565833568      -57.6533257975       19.8064500000  TIP3      3               0.0000000000
         8         3  TIP3      H1             -5.3507054495      -57.3334725884       19.6860800000  TIP3      3               0.0000000000
         9         3  TIP3      H2             -4.5441758611      -58.3876415955       20.4141800000  TIP3      3               0.0000000000
        10         4  TIP3      OH2            -7.4108728053      -56.1966359715       19.5824900000  TIP3      4               0.0000000000
        11         4  TIP3      H1             -7.9027136022      -56.4299349938       18.7951600000  TIP3      4               0.0000000000
        12         4  TIP3      H2             -8.0412957004      -55.7275194735       20.1290600000  TIP3      4               0.0000000000
        13         5  TIP3      OH2            -5.6455981900      -52.3099816583       20.1291200000  TIP3      5               0.0000000000
        14         5  TIP3      H1             -6.5874724254      -52.1692092378       20.2255200000  TIP3      5               0.0000000000
        15         5  TIP3      H2             -5.5746226590      -53.0967735220       19.5886100000  TIP3      5               0.0000000000
        16         6  TIP3      OH2           -56.6263847486      -36.1825597442       21.7548000000  TIP3      6               0.0000000000
        17         6  TIP3      H1            -55.9421178799      -36.2330280164       22.4222300000  TIP3      6               0.0000000000
        18         6  TIP3      H2            -57.2708599513      -36.8379883212       22.0217900000  TIP3      6               0.0000000000
        19         7  TIP3      OH2           -38.0772135719      -34.3308214527       20.1210750000  TIP3      7               0.0000000000
        20         7  TIP3      H1            -38.0847677242      -34.8061502649       20.9518850000  TIP3      7               0.0000000000
        21         7  TIP3      H2            -38.7912581751      -33.6982586436       20.1999950000  TIP3      7               0.0000000000
        22         8  TIP3      OH2           -50.8034465771       -0.0386732003       20.1463350000  TIP3      8               0.0000000000
        23         8  TIP3      H1            -51.3775275550        0.3103770092       19.4645450000  TIP3      8               0.0000000000
        24         8  TIP3      H2            -50.5107026331        0.7326784888       20.6316650000  TIP3      8               0.0000000000
        25         9  TIP3      OH2           -54.9518828611       -0.5688234676       19.6948450000  TIP3      9               0.0000000000
        26         9  TIP3      H1            -55.4553628141       -1.2074677077       19.1899950000  TIP3      9               0.0000000000
        27         9  TIP3      H2            -55.6124291002       -0.0601754163       20.1651550000  TIP3      9               0.0000000000
        28        10  TIP3      OH2           -54.6512816930        2.2967284957       20.8244550000  TIP3      10              0.0000000000
        29        10  TIP3      H1            -54.2917253700        2.8103437679       21.5477450000  TIP3      10              0.0000000000
        30        10  TIP3      H2            -53.9385311460        2.2475820547       20.1874450000  TIP3      10              0.0000000000
        31        11  TIP3      OH2           -53.0987316111       -0.7015231476       21.6303150000  TIP3      11              0.0000000000
        32        11  TIP3      H1            -53.8554767727       -1.0107293715       21.1323550000  TIP3      11              0.0000000000
        33        11  TIP3      H2            -52.3765641296       -0.7144693698       21.0021850000  TIP3      11              0.0000000000
        34        12  TIP3      OH2           -50.1819851557      -52.1570437851       20.5664400000  TIP3      12              0.0000000000
        35        12  TIP3      H1            -50.4518144317      -52.4976107034       21.4193400000  TIP3      12              0.0000000000
        36        12  TIP3      H2            -49.3460642928      -52.5884205575       20.3893100000  TIP3      12              0.0000000000
        37        13  TIP3      OH2           -54.6636492382      -53.3164869078       19.4080100000  TIP3      13              0.0000000000
        38        13  TIP3      H1            -54.5834338694      -52.8896429705       20.2610000000  TIP3      13              0.0000000000
        39        13  TIP3      H2            -53.7833871934      -53.2736014593       19.0344600000  TIP3      13              0.0000000000
        40        14  TIP3      OH2            50.5208761131       31.1364345291       20.0174650000  TIP3      14              0.0000000000
        41        14  TIP3      H1             51.3885432347       31.3595426414       20.3545350000  TIP3      14              0.0000000000
        42        14  TIP3      H2             50.5591485913       30.1927090720       19.8620750000  TIP3      14              0.0000000000
        43        15  TIP3      OH2            57.7421321942       10.8535135417       20.9956750000  TIP3      15              0.0000000000
        44        15  TIP3      H1             58.5433861058       10.7960944473       21.5161750000  TIP3      15              0.0000000000
        45        15  TIP3      H2             57.9289298804       11.5263922046       20.3410250000  TIP3      15              0.0000000000
        46        16  TIP3      OH2            58.5984205694       12.7780907633       19.1552550000  TIP3      16              0.0000000000
        47        16  TIP3      H1             59.2004479322       12.9824377438       18.4396950000  TIP3      16              0.0000000000
        48        16  TIP3      H2             57.7273770965       12.9127895300       18.7819150000  TIP3      16              0.0000000000
        49        17  TIP3      OH2            21.8878477230       28.0987905388       19.9084000000  TIP3      17              0.0000000000
        50        17  TIP3      H1             21.6585602012       28.9755126528       19.6001500000  TIP3      17              0.0000000000
        51        17  TIP3      H2             21.1861838648       27.8672273956       20.5169100000  TIP3      17              0.0000000000
        52        18  TIP3      OH2            21.1420511119       33.1914755609       19.7545400000  TIP3      18              0.0000000000
        53        18  TIP3      H1             21.5860479198       33.6523673595       20.4663500000  TIP3      18              0.0000000000
        54        18  TIP3      H2             20.2650869520       33.5743643091       19.7309100000  TIP3      18              0.0000000000
        55        19  TIP3      OH2             9.8042104457      -56.5776517269       20.0276500000  TIP3      19              5.4100000000
        56        19  TIP3      H1             10.6859418696      -56.5296473806       19.6582200000  TIP3      19              5.3000000000
        57        19  TIP3      H2              9.5725066474      -55.6679350027       20.2146400000  TIP3      19              5.4800000000
        58        20  TIP3      OH2            13.9234215404      -53.4736895678       19.0258900000  TIP3      20              0.0000000000
        59        20  TIP3      H1             14.3657506868      -52.6520131794       18.8127500000  TIP3      20              0.0000000000
        60        20  TIP3      H2             13.2783044820      -53.2334483912       19.6909700000  TIP3      20              0.0000000000
        61        21  TIP3      OH2            12.5040246601      -61.2385428058       17.2440600000  TIP3      21              0.0000000000
        62        21  TIP3      H1             12.6779423917      -60.9932772063       18.1528100000  TIP3      21              0.0000000000
        63        21  TIP3      H2             12.9051296596      -60.5406150575       16.7261400000  TIP3      21              0.0000000000
        64        22  TIP3      OH2             9.4373830758       44.8235122411       20.3877100000  TIP3      22              0.0000000000
        65        22  TIP3      H1              9.7671492675       44.8625634495       21.2854700000  TIP3      22              0.0000000000
        66        22  TIP3      H2              8.7662847502       44.1412843893       20.4080300000  TIP3      22              0.0000000000
        67        23  TIP3      OH2            10.2134737597       49.9659138382       19.1587600000  TIP3      23              0.0000000000
        68        23  TIP3      H1              9.5687943950       50.0885951301       19.8555900000  TIP3      23              0.0000000000
        69        23  TIP3      H2             10.0400898556       49.0862487235       18.8235600000  TIP3      23              0.0000000000
        70        24  TIP3      OH2            55.1219717182       49.5326176107       19.7165100000  TIP3      24             14.1400000000
        71        24  TIP3      H1             54.2973746571       49.0465565293       19.7140900000  TIP3      24              0.0000000000
        72        24  TIP3      H2             54.9221768985       50.3464655123       19.2539200000  TIP3      24              0.0000000000
        73        25  TIP3      OH2            57.4732555562       52.2902545645       19.3954600000  TIP3      25              0.0000000000
        74        25  TIP3      H1             57.4590231983       53.2453869227       19.4568600000  TIP3      25              0.0000000000
        75        25  TIP3      H2             56.7006363638       52.0717407615       18.8743600000  TIP3      25              0.0000000000
        76        26  TIP3      OH2            53.7149405500       54.3572170284       19.7671200000  TIP3      26              0.0000000000
        77        26  TIP3      H1             53.8866398640       55.2304259327       20.1196300000  TIP3      26              0.0000000000
        78        26  TIP3      H2             52.7838826262       54.3668133929       19.5451600000  TIP3      26              0.0000000000
        79        27  TIP3      OH2            50.9271902880       -7.7590070348       21.0358600000  TIP3      27              0.0000000000
        80        27  TIP3      H1             51.6519409569       -7.2145992251       21.3433900000  TIP3      27              0.0000000000
        81        27  TIP3      H2             51.3157658379       -8.6237959634       20.9040300000  TIP3      27              0.0000000000
        82        28  TIP3      OH2            50.9234476597      -10.9493021775       21.9640600000  TIP3      28              0.0000000000
        83        28  TIP3      H1             51.8244331032      -10.6349448715       21.8890400000  TIP3      28              0.0000000000
        84        28  TIP3      H2             50.8714567048      -11.6785055593       21.3461600000  TIP3      28              0.0000000000
        85        29  TIP3      OH2            48.0116357217      -10.8651246945       19.1182300000  TIP3      29              0.0000000000
        86        29  TIP3      H1             47.9085419208      -11.6775397895       19.6137900000  TIP3      29              0.0000000000
        87        29  TIP3      H2             47.7756136832      -11.0998564508       18.2207800000  TIP3      29              0.0000000000
        88        30  TIP3      OH2            28.3899696834      -48.8702367957       19.4093900000  TIP3      30              0.0000000000
        89        30  TIP3      H1             29.2063623270      -48.8034172966       19.9046300000  TIP3      30              0.0000000000
        90        30  TIP3      H2             28.5782741000      -48.4373242645       18.5767100000  TIP3      30              0.0000000000
        91        31  TIP3      OH2            27.2518760335      -49.7085669059       21.7722300000  TIP3      31              0.0000000000
        92        31  TIP3      H1             26.5544946082      -49.0721515493       21.9299000000  TIP3      31              0.0000000000
        93        31  TIP3      H2             27.6643217321      -49.4162105136       20.9594300000  TIP3      31              0.0000000000
        94        32  TIP3      OH2            21.0735219830      -52.2294012902       16.5423400000  TIP3      32              0.0000000000
        95        32  TIP3      H1             20.4502473280      -51.8267036406       15.9376900000  TIP3      32              0.0000000000
        96        32  TIP3      H2             20.5538981749      -52.4386711526       17.3185000000  TIP3      32              0.0000000000
        97        33  TIP3      OH2           -27.3331414451      -43.5788043982       19.6699600000  TIP3      33              0.0000000000
        98        33  TIP3      H1            -26.6521337807      -44.0061167224       19.1504700000  TIP3      33              0.0000000000
        99        33  TIP3      H2            -26.9701312582      -42.7184614581       19.8803600000  TIP3      33              0.0000000000
       100        34  TIP3      OH2           -23.0975204973      -44.9263091399       20.3649000000  TIP3      34              0.0000000000
       101        34  TIP3      H1            -22.4567284277      -44.7875697597       19.6675000000  TIP3      34              0.0000000000
       102        34  TIP3      H2            -22.7104388367      -45.6078425671       20.9143700000  TIP3      34              0.0000000000
       103        35  TIP3      OH2           -53.4432796922      -28.7299971080       21.4772450000  TIP3      35              0.0000000000
       104        35  TIP3      H1            -53.3013293430      -29.1543150257       20.6310550000  TIP3      35              0.0000000000
       105        35  TIP3      H2            -52.5670957397      -28.4793262645       21.7700050000  TIP3      35              0.0000000000
       106        36  TIP3      OH2            40.6549705408       45.8936959171       19.6790950000  TIP3      36            -18.3300000000
       107        36  TIP3      H1             40.0664141305       45.3161955992       19.1929450000  TIP3      36              0.0000000000
       108        36  TIP3      H2             41.3228875826       45.3091231036       20.0374150000  TIP3      36              0.0000000000
       109        37  TIP3      OH2            37.3719838897       49.4173123973       19.6569650000  TIP3      37              0.0000000000
       110        37  TIP3      H1             37.4171929741       50.2900695830       20.0474450000  TIP3      37              0.0000000000
       111        37  TIP3      H2             38.2821186470       49.1944488234       19.4614350000  TIP3      37              0.0000000000
       112        38  TIP3      OH2           -25.5178133681       36.4492331204       20.9092800000  TIP3      38              0.0000000000
       113        38  TIP3      H1            -24.7142636683       35.9812810804       21.1363500000  TIP3      38              0.0000000000
       114        38  TIP3      H2            -25.8602541804       35.9822593661       20.1471200000  TIP3      38              0.0000000000
       115        39  TIP3      OH2           -58.4689340195       59.1729526533       20.9390450000  TIP3      39              0.0000000000
       116        39  TIP3      H1            -59.4169470268       59.2992788649       20.8997150000  TIP3      39              0.0000000000
       117        39  TIP3      H2            -58.2545466604       58.7110929487       20.1285150000  TIP3      39              0.0000000000
       118        40  TIP3      OH2           -59.5865592225       56.2535625884       20.9127350000  TIP3      40              0.0000000000
       119        40  TIP3      H1            -60.4393867728       56.1553571750       21.3361350000  TIP3      40              0.0000000000
       120        40  TIP3      H2            -59.7226390708       56.9346297615       20.2540650000  TIP3      40              0.0000000000
       121        41  TIP3      OH2           -46.9486361720      -20.8752021715       19.9328450000  TIP3      41              5.1400000000
       122        41  TIP3      H1            -46.8194094426      -19.9786554786       20.2422550000  TIP3      41              6.0000000000
       123        41  TIP3      H2            -47.1318780934      -21.3787418382       20.7260050000  TIP3      41              4.9300000000
       124        42  TIP3      OH2           -43.7134460934      -21.8190887484       20.0902950000  TIP3      42              0.0000000000
       125        42  TIP3      H1            -44.1865027636      -22.3694409978       19.4661550000  TIP3      42              0.0000000000
       126        42  TIP3      H2            -44.3864945746      -21.5120201323       20.6977150000  TIP3      42              0.0000000000
       127        43  TIP3      OH2            25.8451417395      -29.7181476756       19.6605450000  TIP3      43              0.0000000000
       128        43  TIP3      H1             25.7943111625      -30.6063412454       20.0137550000  TIP3      43              0.0000000000
       129        43  TIP3      H2             25.5921960327      -29.1543436246       20.3915550000  TIP3      43              0.0000000000
       130        44  TIP3      OH2            28.9656724028      -28.6949739557       21.5418150000  TIP3      44              0.0000000000
       131        44  TIP3      H1             29.4926854572      -28.4720139432       20.7744950000  TIP3      44              0.0000000000
       132        44  TIP3      H2             28.0913081589      -28.3637293812       21.3368950000  TIP3      44              0.0000000000
       133        45  TIP3      OH2            30.6621024479      -19.4000759643       19.8482700000  TIP3      45              0.0000000000
       134        45  TIP3      H1             30.6717495231      -18.6561782839       20.4505600000  TIP3      45              0.0000000000
       135        45  TIP3      H2             30.0769235337      -19.1286986496       19.1410600000  TIP3      45              0.0000000000
       136        46  TIP3      OH2            34.5309918144      -22.3084805466       20.2574200000  TIP3      46              0.0000000000
       137        46  TIP3      H1             34.7788742442      -21.4881124310       20.6837800000  TIP3      46              0.0000000000
       138        46  TIP3      H2             33.7866546227      -22.0752580313       19.7026200000  TIP3      46              0.0000000000
       139        47  TIP3      OH2           -44.5439387600       17.0848450365       20.4998650000  TIP3      47              0.0000000000
       140        47  TIP3      H1            -45.0604090946       16.8414441820       19.7315950000  TIP3      47              0.0000000000
       141        47  TIP3      H2            -45.1931395326       17.3509607895       21.1509850000  TIP3      47              0.0000000000
       142        48  TIP3      OH2           -29.5368921152       56.9528414785       21.4274450000  TIP3      48              0.0000000000
       143        48  TIP3      H1            -28.8168810663       56.6532363506       20.8724250000  TIP3      48              0.0000000000
       144        48  TIP3      H2            -29.9105634742       56.1496827134       21.7901250000  TIP3      48              0.0000000000
       145        49  TIP3      OH2           -31.2849676906       59.0858958408       18.6511150000  TIP3      49              0.0000000000
       146        49  TIP3      H1            -32.1740745247       59.3801211626       18.8490150000  TIP3      49              0.0000000000
       147        49  TIP3      H2            -31.3541354177       58.1327487063       18.5967250000  TIP3      49              0.0000000000
       148        50  TIP3      OH2           -28.9012366028       60.7087238259       18.2372450000  TIP3      50              0.0000000000
       149        50  TIP3      H1            -28.5323863326       59.8399083569       18.3964750000  TIP3      50              0.0000000000
       150        50  TIP3      H2            -29.8225227332       60.5450274351       18.0355750000  TIP3      50              0.0000000000
       151        51  TIP3      OH2            22.7452557682      -56.2022948100       19.9937750000  TIP3      51              0.0000000000
       152        51  TIP3      H1             22.4990531351      -55.3164516638       20.2600550000  TIP3      51              0.0000000000
       153        51  TIP3      H2             23.2125157814      -56.5588502299       20.7492650000  TIP3      51              0.0000000000
       154        52  TIP3      OH2            18.4031015087      -58.6174338452       20.1604250000  TIP3      52              0.0000000000
       155        52  TIP3      H1             19.1910688396      -58.5548484203       19.6205850000  TIP3      52              0.0000000000
       156        52  TIP3      H2             18.2679299277      -59.5575099445       20.2796750000  TIP3      52              0.0000000000
       157        53  TIP3      OH2            41.4373826814      -24.3915748828       20.7560350000  TIP3      53              0.0000000000
       158        53  TIP3      H1             42.3861749854      -24.5159075027       20.7321450000  TIP3      53              0.0000000000
       159        53  TIP3      H2             41.2382369642      -23.9094614519       19.9534550000  TIP3      53              0.0000000000
       160        54  TIP3      OH2            13.2732851055       40.7725958944       20.5726550000  TIP3      54              0.0000000000
       161        54  TIP3      H1             13.1947357739       40.0554987825       19.9435050000  TIP3      54              0.0000000000
       162        54  TIP3      H2             12.4261118522       41.2167671630       20.5372750000  TIP3      54              0.0000000000
       163        55  TIP3      OH2            12.1797271977       36.5403357659       20.2521450000  TIP3      55              0.0000000000
       164        55  TIP3      H1             12.5667313795       35.7998577417       20.7192150000  TIP3      55              0.0000000000
       165        55  TIP3      H2             12.8978154912       36.8953641137       19.7281850000  TIP3      55              0.0000000000
       166        56  TIP3      OH2             9.6316331716       38.5640549188       21.2235550000  TIP3      56              0.0000000000
       167        56  TIP3      H1              9.0010666358       38.7571699849       21.9173250000  TIP3      56              0.0000000000
       168        56  TIP3      H2             10.0360927253       39.4085768136       21.0249750000  TIP3      56              0.0000000000
       169        57  TIP3      OH2           -41.3452563413      -28.9479454220       18.5027950000  TIP3      57              0.0000000000
       170        57  TIP3      H1            -41.0547461370      -29.1466910142       19.3929250000  TIP3      57              0.0000000000
       171        57  TIP3      H2            -41.9660446085      -29.6452703691       18.2916350000  TIP3      57              0.0000000000
       172        58  TIP3      OH2           -42.6199415283      -33.4031180045       19.5533850000  TIP3      58              0.0000000000
       173        58  TIP3      H1            -42.8372646266      -34.2237155388       19.1110850000  TIP3      58              0.0000000000
       174        58  TIP3      H2            -42.1623085186      -33.6734539656       20.3494450000  TIP3      58              0.0000000000
       175        59  TIP3      OH2           -57.2364124224       17.4276478234       19.3429600000  TIP3      59              0.0000000000
       176        59  TIP3      H1            -57.7101124109       17.9833875491       19.9618400000  TIP3      59              0.0000000000
       177        59  TIP3      H2            -57.7475459556       16.6191587016       19.3065600000  TIP3      59              0.0000000000
       178        60  TIP3      OH2           -52.5874205977       16.9506713345       19.6741900000  TIP3      60              0.0000000000
       179        60  TIP3      H1            -52.8601764292       16.4108432091       20.4161000000  TIP3      60              0.0000000000
       180        60  TIP3      H2            -53.3433618884       17.5092107243       19.4930600000  TIP3      60              0.0000000000
       181        61  TIP3      OH2           -54.2815857967       21.1561322143       20.2681000000  TIP3      61              0.0000000000
       182        61  TIP3      H1            -54.0768532987       20.4698327631       19.6330300000  TIP3      61              0.0000000000
       183        61  TIP3      H2            -53.8240714928       20.8894615527       21.0654800000  TIP3      61              0.0000000000
       184        62  TIP3      OH2            15.4228189319      -33.5448647777      -20.7067050000  TIP3      62              0.0000000000
       185        62  TIP3      H1             15.8491639025      -33.0122671166      -20.0352750000  TIP3      62              0.0000000000
       186        62  TIP3      H2             15.9965960614      -34.3038914957      -20.8110850000  TIP3      62              0.0000000000
       187        63  TIP3      OH2            16.7755928560      -31.2150596030      -21.5917350000  TIP3      63              0.0000000000
       188        63  TIP3      H1             16.1252682447      -31.9123015343      -21.5071450000  TIP3      63              0.0000000000
       189        63  TIP3      H2             16.6390722781      -30.8650809959      -22.4721350000  TIP3      63              0.0000000000
       190        64  TIP3      OH2            16.7011304933      -29.0182001035      -20.0710650000  TIP3      64              0.0000000000
       191        64  TIP3      H1             16.8662116152      -29.8741381116      -20.4664650000  TIP3      64              0.0000000000
       192        64  TIP3      H2             15.7469996415      -28.9493597085      -20.0374550000  TIP3      64              0.0000000000
       193        65  TIP3      OH2           -41.2009659779      -38.8633998433      -20.3366150000  TIP3      65              0.0000000000
       194        65  TIP3      H1            -41.6660442623      -38.4462058589      -21.0617950000  TIP3      65              0.0000000000
       195        65  TIP3      H2            -41.4034608886      -38.3182315269      -19.5763350000  TIP3      65              0.0000000000
       196        66  TIP3      OH2           -38.4515183413      -38.8975815550      -19.7636450000  TIP3      66              0.0000000000
       197        66  TIP3      H1            -38.6517503277      -39.6813539234      -19.2519350000  TIP3      66              0.0000000000
       198        66  TIP3      H2            -39.2615800027      -38.7061047426      -20.2362550000  TIP3      66              0.0000000000
       199        67  TIP3      OH2            39.5451223596       22.8523605121      -20.1035950000  TIP3      67              0.0000000000
       200        67  TIP3      H1             38.6402589856       22.9668590345      -19.8131850000  TIP3      67              0.0000000000
       201        67  TIP3      H2             40.0738692292       23.1051176533      -19.3467750000  TIP3      67              0.0000000000
       202        68  TIP3      OH2            35.5206642229       26.0486579542      -20.0220950000  TIP3      68              0.0000000000
       203        68  TIP3      H1             35.5595085881       25.1139896390      -20.2248650000  TIP3      68              0.0000000000
       204        68  TIP3      H2             34.5853998554       26.2515736378      -20.0037150000  TIP3      68              0.0000000000
       205        69  TIP3      OH2            38.1777263559       26.0737109710      -19.2002450000  TIP3      69              0.0000000000
       206        69  TIP3      H1             37.4083146105       26.4587823001      -19.6197050000  TIP3      69              0.0000000000
       207        69  TIP3      H2             37.8277146840       25.3630124859      -18.6629950000  TIP3      69              0.0000000000
       208        70  TIP3      OH2           -38.2368352366      -28.2121397120      -19.3312650000  TIP3      70              0.0000000000
       209        70  TIP3      H1            -38.1347229359      -27.3039974625      -19.0465350000  TIP3      70              0.0000000000
       210        70  TIP3      H2            -38.9448686343      -28.1837180721      -19.9747850000  TIP3      70              0.0000000000
       211        71  TIP3      OH2           -40.1504276138      -25.0778286224      -21.1568450000  TIP3      71              0.0000000000
       212        71  TIP3      H1            -39.5096065505      -24.5330686745      -20.6998950000  TIP3      71              0.0000000000
       213        71  TIP3      H2            -40.9596838237      -24.9659695855      -20.6580250000  TIP3      71              0.0000000000
       214        72  TIP3      OH2           -38.2076211940      -23.3447239362      -20.2516650000  TIP3      72              0.0000000000
       215        72  TIP3      H1            -38.6840373305      -22.5152850307      -20.2158850000  TIP3      72              0.0000000000
       216        72  TIP3      H2            -37.5334622258      -23.2057558218      -20.9168150000  TIP3      72              0.0000000000
       217        73  TIP3      OH2            44.2742525725       27.3119781872      -20.7067050000  TIP3      73              0.0000000000
       218        73  TIP3      H1             43.7435836606       27.7407214769      -20.0352750000  TIP3      73              0.0000000000
       219        73  TIP3      H2             45.0358599934       27.8823253529      -20.8110850000  TIP3      73              0.0000000000
       220        74  TIP3      OH2            41.9505737457       28.6752485755      -21.5917350000  TIP3      74              0.0000000000
       221        74  TIP3      H1             42.6448748344       28.0217851801      -21.5071450000  TIP3      74              0.0000000000
       222        74  TIP3      H2             41.5999828274       28.5403082121      -22.4721350000  TIP3      74              0.0000000000
       223        75  TIP3      OH2            39.7534006853       28.6106974547      -20.0710650000  TIP3      75              0.0000000000
       224        75  TIP3      H1             40.6100746987       28.7719155847      -20.4664650000  TIP3      75              0.0000000000
       225        75  TIP3      H2             39.6802567107       27.6568868648      -20.0374550000  TIP3      75              0.0000000000
       226        76  TIP3      OH2            40.5741219453       -5.9579045140      -19.5409300000  TIP3      76              0.0000000000
       227        76  TIP3      H1             40.9251170475       -5.6726807296      -20.3845400000  TIP3      76              0.0000000000
       228        76  TIP3      H2             39.7052394722       -5.5589248215      -19.4952500000  TIP3      76              0.0000000000
       229        77  TIP3      OH2            41.0094593435      -10.6306483739      -19.7892800000  TIP3      77              0.0000000000
       230        77  TIP3      H1             40.7245393818       -9.9195087364      -19.2154100000  TIP3      77              0.0000000000
       231        77  TIP3      H2             41.9457242670      -10.4766745941      -19.9155200000  TIP3      77              0.0000000000
       232        78  TIP3      OH2           -36.5493560555       42.2755145080      -20.6341750000  TIP3      78              0.0000000000
       233        78  TIP3      H1            -37.1392579126       41.7205257681      -20.1240350000  TIP3      78              0.0000000000
       234        78  TIP3      H2            -36.1596690473       41.6837057990      -21.2777050000  TIP3      78              0.0000000000
       235        79  TIP3      OH2           -42.0585283644       41.8078088714      -19.4097550000  TIP3      79              0.0000000000
       236        79  TIP3      H1            -42.3976026638       42.2825834820      -20.1686050000  TIP3      79              0.0000000000
       237        79  TIP3      H2            -41.2850350224       42.3041132079      -19.1421450000  TIP3      79              0.0000000000
       238        80  TIP3      OH2            49.3218030296      -45.2667252980      -19.9712600000  TIP3      80              0.0000000000
       239        80  TIP3      H1             49.0599551584      -44.4555851849      -19.5357100000  TIP3      80              0.0000000000
       240        80  TIP3      H2             48.9333906589      -45.9610830724      -19.4390700000  TIP3      80              0.0000000000
       241        81  TIP3      OH2            41.1344438436       14.2698205800      -21.0961800000  TIP3      81              0.0000000000
       242        81  TIP3      H1             40.9186374624       14.3522846226      -20.1672800000  TIP3      81              0.0000000000
       243        81  TIP3      H2             40.5957020040       13.5409284398      -21.4039300000  TIP3      81              0.0000000000
       244        82  TIP3      OH2            40.3752565486       11.0619338236      -19.3094200000  TIP3      82              0.0000000000
       245        82  TIP3      H1             40.8156678452       10.2319841830      -19.1265600000  TIP3      82              0.0000000000
       246        82  TIP3      H2             40.0762522523       10.9805048160      -20.2150700000  TIP3      82              0.0000000000
       247        83  TIP3      OH2           -48.4801692280       54.5050990674      -21.3010300000  TIP3      83              0.0000000000
       248        83  TIP3      H1            -47.8628860264       54.4265718557      -20.5736900000  TIP3      83              0.0000000000
       249        83  TIP3      H2            -48.9581810257       53.6758022860      -21.3007200000  TIP3      83              0.0000000000
       250        84  TIP3      OH2           -44.9023486134       53.4663647006      -19.4045900000  TIP3      84              0.0000000000
       251        84  TIP3      H1            -45.0657581252       53.8511320053      -20.2656900000  TIP3      84              0.0000000000
       252        84  TIP3      H2            -45.6746779359       53.6969030850      -18.8882600000  TIP3      84              0.0000000000
       253        85  TIP3      OH2           -46.9533416711       57.6379913877      -19.9397900000  TIP3      85              0.0000000000
       254        85  TIP3      H1            -46.1705350322       57.3758831579      -20.4242900000  TIP3      85              0.0000000000
       255        85  TIP3      H2            -47.2157551641       58.4676928494      -20.3385000000  TIP3      85              0.0000000000
       256        86  TIP3      OH2            55.1130875579       35.5899235113      -19.1512550000  TIP3      86              0.0000000000
       257        86  TIP3      H1             55.6632023988       34.8262606991      -18.9768250000  TIP3      86              0.0000000000
       258        86  TIP3      H2             55.5780047728       36.3192926592      -18.7412550000  TIP3      86              0.0000000000
       259        87  TIP3      OH2            59.0675371282       37.7078142312      -20.2117550000  TIP3      87              0.0000000000
       260        87  TIP3      H1             58.3119209174       37.8265549620      -19.6362750000  TIP3      87              0.0000000000
       261        87  TIP3      H2             59.0118331541       36.7954331550      -20.4958050000  TIP3      87              0.0000000000
       262        88  TIP3      OH2           -11.2271672464      -48.2688217522      -20.7560350000  TIP3      88              0.0000000000
       263        88  TIP3      H1            -12.1541651496      -48.0314605844      -20.7321450000  TIP3      88              0.0000000000
       264        88  TIP3      H2            -10.8630399820      -47.8953197948      -19.9534550000  TIP3      88              0.0000000000
       265        89  TIP3      OH2           -33.9250556684       39.9667766744      -20.4000000000  TIP3      89              0.0000000000
       266        89  TIP3      H1            -33.4761847040       39.8626104795      -21.2389800000  TIP3      89              0.0000000000
       267        89  TIP3      H2            -33.5680846693       40.7768120882      -20.0357800000  TIP3      89              0.0000000000
       268        90  TIP3      OH2           -29.8864582724       38.1670780246      -20.0120200000  TIP3      90              0.0000000000
       269        90  TIP3      H1            -29.8573698459       38.9040478034      -20.6221500000  TIP3      90              0.0000000000
       270        90  TIP3      H2            -30.7482785849       38.2302507503      -19.6003100000  TIP3      90              0.0000000000
       271        91  TIP3      OH2           -57.9009260705      -34.7368261936      -18.0874550000  TIP3      91              0.0000000000
       272        91  TIP3      H1            -57.9079003538      -35.5159397008      -18.6434850000  TIP3      91              0.0000000000
       273        91  TIP3      H2            -57.2712139593      -34.1494007261      -18.5053350000  TIP3      91              0.0000000000
       274        92  TIP3      OH2             7.1226489242      -51.3697215872      -19.0421350000  TIP3      92              0.0000000000
       275        92  TIP3      H1              8.0510359906      -51.4909668259      -18.8430650000  TIP3      92              0.0000000000
       276        92  TIP3      H2              6.6992375042      -52.1576221453      -18.7013150000  TIP3      92              0.0000000000
       277        93  TIP3      OH2             7.1177867855      -56.5207970159      -19.9131550000  TIP3      93              0.0000000000
       278        93  TIP3      H1              8.0463939173      -56.5552328878      -19.6835050000  TIP3      93              0.0000000000
       279        93  TIP3      H2              7.0057117200      -57.2135830958      -20.5640950000  TIP3      93              0.0000000000
       280        94  TIP3      OH2           -20.3615170603      -34.4904820809      -21.3010300000  TIP3      94              0.0000000000
       281        94  TIP3      H1            -19.8200967611      -34.7971889990      -20.5736900000  TIP3      94              0.0000000000
       282        94  TIP3      H2            -21.1182660860      -35.0766214351      -21.3007200000  TIP3      94              0.0000000000
       283        95  TIP3      OH2           -17.4446697421      -36.8081902501      -19.4045900000  TIP3      95              0.0000000000
       284        95  TIP3      H1            -17.4499937980      -36.3901947935      -20.2656900000  TIP3      95              0.0000000000
       285        95  TIP3      H2            -18.0719246432      -36.3020363031      -18.8882600000  TIP3      95              0.0000000000
       286        96  TIP3      OH2           -17.7608536293      -32.1704031173      -19.9397900000  TIP3      96              0.0000000000
       287        96  TIP3      H1            -17.1358734049      -32.7097422288      -20.4242900000  TIP3      96              0.0000000000
       288        96  TIP3      H2            -17.6890927730      -31.3031570528      -20.3385000000  TIP3      96              0.0000000000
       289        97  TIP3      OH2            57.9198458516       20.6143303821      -21.3299500000  TIP3      97            -18.4500000000
       290        97  TIP3      H1             57.6564448588       20.6968243546      -20.4134000000  TIP3      97              0.0000000000
       291        97  TIP3      H2             57.1343347258       20.8428882772      -21.8269000000  TIP3      97              0.0000000000
       292        98  TIP3      OH2            55.0432504573       21.4347312967      -20.4515300000  TIP3      98              0.0000000000
       293        98  TIP3      H1             55.1701314121       22.3628786785      -20.2548900000  TIP3      98              0.0000000000
       294        98  TIP3      H2             54.1056681257       21.3523211065      -20.6258000000  TIP3      98              0.0000000000
       295        99  TIP3      OH2           -44.1345402320       23.0518886651      -19.8744850000  TIP3      99              0.0000000000
       296        99  TIP3      H1            -44.5143862370       22.4123785519      -19.2720050000  TIP3      99              0.0000000000
       297        99  TIP3      H2            -43.3052425540       22.6602772883      -20.1486150000  TIP3      99              0.0000000000
       298       100  TIP3      OH2           -46.0273374959       21.5054038192      -21.4468150000  TIP3      100             0.0000000000
       299       100  TIP3      H1            -45.5155087823       21.0283143842      -20.7936350000  TIP3      100             0.0000000000
       300       100  TIP3      H2            -45.8567411101       22.4281990068      -21.2581550000  TIP3      100             0.0000000000
       301       101  TIP3      OH2           -47.8300486366       19.0527004922      -19.3191250000  TIP3      101             0.0000000000
       302       101  TIP3      H1            -47.9309550614       19.3973075333      -20.2064150000  TIP3      101             0.0000000000
       303       101  TIP3      H2            -48.5181832450       18.3922404966      -19.2384850000  TIP3      101             0.0000000000
       304       102  TIP3      OH2            29.1522660645      -45.3247629980      -19.7165100000  TIP3      102            14.1400000000
       305       102  TIP3      H1             29.8892734386      -44.7139964154      -19.7140900000  TIP3      102             0.0000000000
       306       102  TIP3      H2             28.4544832885      -44.8606880314      -19.2539200000  TIP3      102             0.0000000000
       307       103  TIP3      OH2            25.7604378937      -46.6009287066      -19.3954600000  TIP3      103             0.0000000000
       308       103  TIP3      H1             24.8667916998      -46.2634722474      -19.4568600000  TIP3      103             0.0000000000
       309       103  TIP3      H2             26.2281329041      -45.9482801980      -18.8743600000  TIP3      103             0.0000000000
       310       104  TIP3      OH2            25.0912495906      -42.3642492843      -19.7671200000  TIP3      104             0.0000000000
       311       104  TIP3      H1             24.2115822080      -42.2294912013      -20.1196300000  TIP3      104             0.0000000000
       312       104  TIP3      H2             25.3981225648      -41.4851645754      -19.5451600000  TIP3      104             0.0000000000
       313       105  TIP3      OH2            40.6435263487      -47.2123811857      -20.2960550000  TIP3      105             0.0000000000
       314       105  TIP3      H1             39.8470450578      -47.7243092312      -20.4367350000  TIP3      105             0.0000000000
       315       105  TIP3      H2             40.5621093525      -46.4718326131      -20.8970450000  TIP3      105             0.0000000000
       316       106  TIP3      OH2            41.3742353140       45.6448208517      -21.1505800000  TIP3      106             0.0000000000
       317       106  TIP3      H1             41.2147111355       45.1658973391      -20.3373100000  TIP3      106             0.0000000000
       318       106  TIP3      H2             41.2323207482       46.5629751290      -20.9201900000  TIP3      106             0.0000000000
       319       107  TIP3      OH2            38.6956372909       47.4211908388      -19.7136500000  TIP3      107             0.0000000000
       320       107  TIP3      H1             38.2564197719       47.7413769174      -20.5015600000  TIP3      107             0.0000000000
       321       107  TIP3      H2             39.5902972350       47.7537858106      -19.7856700000  TIP3      107             0.0000000000
       322       108  TIP3      OH2            39.8715028407      -25.4553918564      -20.7143000000  TIP3      108             0.0000000000
       323       108  TIP3      H1             39.7685033480      -25.0575131743      -19.8498300000  TIP3      108             0.0000000000
       324       108  TIP3      H2             39.9078343493      -24.7129743583      -21.3174000000  TIP3      108             0.0000000000
       325       109  TIP3      OH2           -24.2767814784      -45.8318181919      -19.7983250000  TIP3      109             0.0000000000
       326       109  TIP3      H1            -24.4549561245      -44.9042140119      -19.9533750000  TIP3      109             0.0000000000
       327       109  TIP3      H2            -24.8108046350      -46.2904550746      -20.4469350000  TIP3      109             0.0000000000
       328       110  TIP3      OH2           -27.3496544889      -49.5449290304      -19.0383850000  TIP3      110             0.0000000000
       329       110  TIP3      H1            -26.5468917967      -49.0372325293      -18.9198550000  TIP3      110             0.0000000000
       330       110  TIP3      H2            -27.8392088482      -49.0670428112      -19.7078550000  TIP3      110             0.0000000000
       331       111  TIP3      OH2           -21.9816163871      -49.3482747021      -19.6027450000  TIP3      111             0.0000000000
       332       111  TIP3      H1            -21.3619280781      -48.8071467079      -19.1134550000  TIP3      111             0.0000000000
       333       111  TIP3      H2            -22.8342824332      -49.1431349391      -19.2192050000  TIP3      111             0.0000000000
       334       112  TIP3      OH2           -24.9096419402      -50.2918934168      -21.1311150000  TIP3      112             0.0000000000
       335       112  TIP3      H1            -24.9713184469      -49.5646785098      -20.5117750000  TIP3      112             0.0000000000
       336       112  TIP3      H2            -24.9363873332      -51.0764710699      -20.5834450000  TIP3      112             0.0000000000
       337       113  TIP3      OH2           -55.0864868276      -48.7712887236      -20.4082900000  TIP3      113             0.0000000000
       338       113  TIP3      H1            -54.4840605609      -48.0715561243      -20.6606300000  TIP3      113             0.0000000000
       339       113  TIP3      H2            -55.8974589274      -48.3181777783      -20.1775300000  TIP3      113             0.0000000000
       340       114  TIP3      OH2           -33.4047316011       47.5125070030      -22.0437550000  TIP3      114             0.0000000000
       341       114  TIP3      H1            -33.1619886375       47.6527107837      -21.1285250000  TIP3      114             0.0000000000
       342       114  TIP3      H2            -32.8655317423       48.1339351948      -22.5329550000  TIP3      114             0.0000000000
       343       115  TIP3      OH2           -34.9599716917       47.6539574990      -19.3257050000  TIP3      115             0.0000000000
       344       115  TIP3      H1            -35.3072736675       48.3621200670      -18.7833850000  TIP3      115             0.0000000000
       345       115  TIP3      H2            -34.0604550604       47.5367403234      -19.0201650000  TIP3      115             0.0000000000
       346       116  TIP3      OH2           -31.6725618563       50.9750533345      -18.5352150000  TIP3      116             0.0000000000
       347       116  TIP3      H1            -31.2505586127       50.2033901691      -18.9129550000  TIP3      116             0.0000000000
       348       116  TIP3      H2            -31.7942772646       50.7541834534      -17.6118350000  TIP3      116             0.0000000000
       349       117  TIP3      OH2            29.0005452816       58.1870729576      -20.2359150000  TIP3      117             0.0000000000
       350       117  TIP3      H1             28.8052769131       57.4454806325      -19.6630750000  TIP3      117             0.0000000000
       351       117  TIP3      H2             29.3615198857       58.8534353871      -19.6512050000  TIP3      117             0.0000000000
       352       118  TIP3      OH2            32.4354741486       55.3366536123      -20.6436050000  TIP3      118             0.0000000000
       353       118  TIP3      H1             31.7950957418       55.5154105382      -19.9549850000  TIP3      118             0.0000000000
       354       118  TIP3      H2             32.3876024916       54.3898536121      -20.7759250000  TIP3      118             0.0000000000
       355       119  TIP3      OH2            27.8685649398       55.7815246053      -18.8453050000  TIP3      119             0.0000000000
       356       119  TIP3      H1             27.6795102347       55.5290821301      -19.7490550000  TIP3      119             0.0000000000
       357       119  TIP3      H2             27.0697953404       56.2152610837      -18.5451850000  TIP3      119             0.0000000000
       358       120  TIP3      OH2            49.0794187615       42.8614180810      -21.6699600000  TIP3      120             0.0000000000
       359       120  TIP3      H1             49.8168314612       42.7971688780      -21.0630600000  TIP3      120             0.0000000000
       360       120  TIP3      H2             48.7592401259       41.9633324537      -21.7545100000  TIP3      120             0.0000000000
       361       121  TIP3      OH2            53.4784636561       -4.0356505457      -19.1565850000  TIP3      121             0.0000000000
       362       121  TIP3      H1             52.6451215582       -4.4240416383      -19.4228950000  TIP3      121             0.0000000000
       363       121  TIP3      H2             53.2329284969       -3.3163401048      -18.5747350000  TIP3      121             0.0000000000
