* GENERATED BY CHARMM-GUI (HTTP://WWW.CHARMM-GUI.ORG) V3.7 ON JUN, 01. 2026. JOB
* REPLACE PACKED BIG SPHERES BY LIPID MOLECULES OF RANDOM CONFORMATION
*  DATE:     6/ 1/26      0:48:54      CREATED BY USER: charmm-gui
*
     38028  EXT
         1         1  CHL1      C3             14.8687968778      -33.3873304281       17.4019700000  MEMB      1               0.0000000000
         2         1  CHL1      H3             15.9444943132      -33.3950712871       17.6797000000  MEMB      1               0.0000000000
         3         1  CHL1      O3             14.1343407222      -33.4204111719       18.5980300000  MEMB      1               0.0000000000
         4         1  CHL1      H3'            14.2616030526      -32.5640462346       19.0128200000  MEMB      1               0.0000000000
         5         1  CHL1      C4             14.5440174571      -32.1839472824       16.4744700000  MEMB      1               0.0000000000
         6         1  CHL1      H4A            13.4628735566      -31.9952615511       16.6472100000  MEMB      1               0.0000000000
         7         1  CHL1      H4B            15.0900936701      -31.3235102223       16.9169300000  MEMB      1               0.0000000000
         8         1  CHL1      C5             14.7548124400      -32.3725250966       14.9961800000  MEMB      1               0.0000000000
         9         1  CHL1      C6             15.3880343638      -31.3177627835       14.4143400000  MEMB      1               0.0000000000
        10         1  CHL1      H6             15.5456304348      -30.4474773332       15.0683800000  MEMB      1               0.0000000000
        11         1  CHL1      C7             15.7432629852      -31.3270284506       12.9639200000  MEMB      1               0.0000000000
        12         1  CHL1      H7A            15.4411652623      -30.3321461430       12.5724200000  MEMB      1               0.0000000000
        13         1  CHL1      H7B            16.8464104185      -31.4134966245       12.8643100000  MEMB      1               0.0000000000
        14         1  CHL1      C8             15.0965218749      -32.4857343180       12.1647000000  MEMB      1               0.0000000000
        15         1  CHL1      H8             14.1122851833      -32.0888480301       11.8359400000  MEMB      1               0.0000000000
        16         1  CHL1      C14            15.9534574364      -32.7557242592       10.8632800000  MEMB      1               0.0000000000
        17         1  CHL1      H14            16.8544484409      -33.2750620056       11.2541900000  MEMB      1               0.0000000000
        18         1  CHL1      C15            16.4943643893      -31.5439068599       10.0352800000  MEMB      1               0.0000000000
        19         1  CHL1      H15A           15.8122374881      -30.6671336833       10.0183900000  MEMB      1               0.0000000000
        20         1  CHL1      H15B           17.4491643569      -31.1945708493       10.4832200000  MEMB      1               0.0000000000
        21         1  CHL1      C16            16.7582731573      -32.1503288840        8.6735900000  MEMB      1               0.0000000000
        22         1  CHL1      H16A           16.0072598850      -31.7297816714        7.9711300000  MEMB      1               0.0000000000
        23         1  CHL1      H16B           17.7286139603      -31.9117892255        8.1879300000  MEMB      1               0.0000000000
        24         1  CHL1      C17            16.4224502508      -33.6039084109        8.8373000000  MEMB      1               0.0000000000
        25         1  CHL1      H17            17.2960238126      -34.1772554532        9.2147600000  MEMB      1               0.0000000000
        26         1  CHL1      C13            15.3033079146      -33.6753231873        9.9089900000  MEMB      1               0.0000000000
        27         1  CHL1      C18            13.9814895924      -33.1519867969        9.3394100000  MEMB      1               0.0000000000
        28         1  CHL1      H18A           14.0058116870      -32.1631297525        8.8335500000  MEMB      1               0.0000000000
        29         1  CHL1      H18B           13.5948781813      -33.8301198169        8.5488400000  MEMB      1               0.0000000000
        30         1  CHL1      H18C           13.2343273625      -33.0796636120       10.1584600000  MEMB      1               0.0000000000
        31         1  CHL1      C12            15.1897812318      -35.0674417883       10.6396900000  MEMB      1               0.0000000000
        32         1  CHL1      H12A           14.7014560459      -35.7418847104        9.9041800000  MEMB      1               0.0000000000
        33         1  CHL1      H12B           16.1965066553      -35.4339017235       10.9338700000  MEMB      1               0.0000000000
        34         1  CHL1      C11            14.3413889752      -34.8741382157       11.9590100000  MEMB      1               0.0000000000
        35         1  CHL1      H11A           13.2852548931      -34.6113272310       11.7357700000  MEMB      1               0.0000000000
        36         1  CHL1      H11B           14.3020728483      -35.8042448474       12.5653700000  MEMB      1               0.0000000000
        37         1  CHL1      C9             15.0029404897      -33.7580082044       12.8696800000  MEMB      1               0.0000000000
        38         1  CHL1      H9             16.0611178252      -34.0794067366       12.9758600000  MEMB      1               0.0000000000
        39         1  CHL1      C10            14.3811265649      -33.6993749363       14.3320300000  MEMB      1               0.0000000000
        40         1  CHL1      C19            12.8501368464      -33.7106921973       14.1866400000  MEMB      1               0.0000000000
        41         1  CHL1      H19A           12.6006800835      -34.7932961729       14.1788800000  MEMB      1               0.0000000000
        42         1  CHL1      H19B           12.3259086982      -33.2256658686       15.0376700000  MEMB      1               0.0000000000
        43         1  CHL1      H19C           12.5205860308      -33.2164392403       13.2478000000  MEMB      1               0.0000000000
        44         1  CHL1      C1             14.9047094306      -34.7993249348       15.2918400000  MEMB      1               0.0000000000
        45         1  CHL1      H1A            14.5322681474      -35.8083830556       15.0136100000  MEMB      1               0.0000000000
        46         1  CHL1      H1B            16.0108983294      -34.7971778635       15.1885600000  MEMB      1               0.0000000000
        47         1  CHL1      C2             14.4644921795      -34.7448940542       16.8056400000  MEMB      1               0.0000000000
        48         1  CHL1      H2A            14.8223660138      -35.6435060591       17.3522200000  MEMB      1               0.0000000000
        49         1  CHL1      H2B            13.3547736430      -34.7981862148       16.8093900000  MEMB      1               0.0000000000
        50         1  CHL1      C20            16.2150849608      -34.5251117347        7.4602700000  MEMB      1               0.0000000000
        51         1  CHL1      H20            15.6957318278      -35.4644722996        7.7469700000  MEMB      1               0.0000000000
        52         1  CHL1      C21            17.6352276411      -34.8431924265        6.9638900000  MEMB      1               0.0000000000
        53         1  CHL1      H21A           18.2122611471      -33.9098530384        6.7899800000  MEMB      1               0.0000000000
        54         1  CHL1      H21B           17.5719853241      -35.2954292112        5.9510800000  MEMB      1               0.0000000000
        55         1  CHL1      H21C           18.2873000445      -35.4648587673        7.6140000000  MEMB      1               0.0000000000
        56         1  CHL1      C22            15.4963682843      -33.7696381498        6.3655300000  MEMB      1               0.0000000000
        57         1  CHL1      H22A           14.5692648094      -33.2400000643        6.6725700000  MEMB      1               0.0000000000
        58         1  CHL1      H22B           16.2120924971      -32.9717316734        6.0732700000  MEMB      1               0.0000000000
        59         1  CHL1      C23            15.0863509775      -34.6100438334        5.1152000000  MEMB      1               0.0000000000
        60         1  CHL1      H23A           15.9505260538      -35.1950539358        4.7340300000  MEMB      1               0.0000000000
        61         1  CHL1      H23B           14.2827831112      -35.3309721847        5.3776000000  MEMB      1               0.0000000000
        62         1  CHL1      C24            14.7782282075      -33.5334808426        4.0439400000  MEMB      1               0.0000000000
        63         1  CHL1      H24A           13.8940069574      -32.9577886489        4.3918700000  MEMB      1               0.0000000000
        64         1  CHL1      H24B           15.6519446194      -32.8489893083        3.9948200000  MEMB      1               0.0000000000
        65         1  CHL1      C25            14.5165930801      -34.1135633508        2.6654700000  MEMB      1               0.0000000000
        66         1  CHL1      H25            15.2043832153      -34.9841038169        2.6069800000  MEMB      1               0.0000000000
        67         1  CHL1      C26            13.1268055397      -34.5818620615        2.4929000000  MEMB      1               0.0000000000
        68         1  CHL1      H26A           12.8967521796      -35.2058772918        3.3828500000  MEMB      1               0.0000000000
        69         1  CHL1      H26B           12.4236232031      -33.7252103619        2.4155100000  MEMB      1               0.0000000000
        70         1  CHL1      H26C           12.9676679893      -35.2231751798        1.5997400000  MEMB      1               0.0000000000
        71         1  CHL1      C27            14.8343920416      -33.0868122605        1.5305700000  MEMB      1               0.0000000000
        72         1  CHL1      H27A           15.8729536216      -32.7026381028        1.6206700000  MEMB      1               0.0000000000
        73         1  CHL1      H27B           14.8683197752      -33.6167903326        0.5547100000  MEMB      1               0.0000000000
        74         1  CHL1      H27C           14.0390682226      -32.3128667641        1.4778300000  MEMB      1               0.0000000000
        75         2  CHL1      C3             -5.9766270768      -54.2521983905       17.3682200000  MEMB      2               0.0000000000
        76         2  CHL1      H3             -6.9601288627      -53.7540267403       17.5055800000  MEMB      2               0.0000000000
        77         2  CHL1      O3             -5.4722460032      -54.6161576095       18.6317800000  MEMB      2               0.0000000000
        78         2  CHL1      H3'            -6.1625930284      -55.2431285984       18.8596600000  MEMB      2               0.0000000000
        79         2  CHL1      C4             -6.1962278718      -55.5345486583       16.5320100000  MEMB      2               0.0000000000
        80         2  CHL1      H4A            -5.2357086479      -56.0638859665       16.3544300000  MEMB      2               0.0000000000
        81         2  CHL1      H4B            -6.8756619134      -56.2430434424       17.0523300000  MEMB      2               0.0000000000
        82         2  CHL1      C5             -6.5960865250      -55.3409392973       15.0940000000  MEMB      2               0.0000000000
        83         2  CHL1      C6             -7.7833945899      -55.6843307461       14.5317000000  MEMB      2               0.0000000000
        84         2  CHL1      H6             -8.3862029985      -56.4372107176       15.0606500000  MEMB      2               0.0000000000
        85         2  CHL1      C7             -8.1144674758      -55.4253876119       13.0489000000  MEMB      2               0.0000000000
        86         2  CHL1      H7A            -8.6497785862      -56.3176176991       12.6594300000  MEMB      2               0.0000000000
        87         2  CHL1      H7B            -8.8261322486      -54.5724275032       13.0663200000  MEMB      2               0.0000000000
        88         2  CHL1      C8             -6.9145563566      -55.0169769512       12.2386000000  MEMB      2               0.0000000000
        89         2  CHL1      H8             -6.2208604900      -55.8773779006       12.1252900000  MEMB      2               0.0000000000
        90         2  CHL1      C14            -7.3405619335      -54.5329703364       10.8915200000  MEMB      2               0.0000000000
        91         2  CHL1      H14            -8.0343189128      -53.6772836488       11.0357800000  MEMB      2               0.0000000000
        92         2  CHL1      C15            -8.1873739525      -55.5764696064       10.1498000000  MEMB      2               0.0000000000
        93         2  CHL1      H15A           -7.5096966790      -56.4568049301       10.1583800000  MEMB      2               0.0000000000
        94         2  CHL1      H15B           -9.1765442223      -55.8132897447       10.5967600000  MEMB      2               0.0000000000
        95         2  CHL1      C16            -8.2767290857      -54.9731103546        8.7080300000  MEMB      2               0.0000000000
        96         2  CHL1      H16A           -8.0899628210      -55.8016342405        7.9918000000  MEMB      2               0.0000000000
        97         2  CHL1      H16B           -9.2878224445      -54.5894861387        8.4534200000  MEMB      2               0.0000000000
        98         2  CHL1      C17            -7.1729345773      -53.7566754842        8.6962600000  MEMB      2               0.0000000000
        99         2  CHL1      H17            -7.7864965097      -52.8425057781        8.8451100000  MEMB      2               0.0000000000
       100         2  CHL1      C13            -6.3594373966      -53.9895901198        9.9138400000  MEMB      2               0.0000000000
       101         2  CHL1      C18            -5.1854266145      -55.0571771257        9.6166600000  MEMB      2               0.0000000000
       102         2  CHL1      H18A           -4.2240752092      -54.5707690538        9.3455000000  MEMB      2               0.0000000000
       103         2  CHL1      H18B           -5.0034634370      -55.5503272535       10.5954400000  MEMB      2               0.0000000000
       104         2  CHL1      H18C           -5.4684116122      -55.8861015498        8.9332100000  MEMB      2               0.0000000000
       105         2  CHL1      C12            -5.8121459567      -52.7369698196       10.6396300000  MEMB      2               0.0000000000
       106         2  CHL1      H12A           -5.0717665337      -52.2390845343        9.9776100000  MEMB      2               0.0000000000
       107         2  CHL1      H12B           -6.6444527341      -52.0313278402       10.8485600000  MEMB      2               0.0000000000
       108         2  CHL1      C11            -5.2037157472      -53.1543013219       12.0180400000  MEMB      2               0.0000000000
       109         2  CHL1      H11A           -4.3197872565      -53.7777103522       11.7643300000  MEMB      2               0.0000000000
       110         2  CHL1      H11B           -4.7937849860      -52.2151153944       12.4472300000  MEMB      2               0.0000000000
       111         2  CHL1      C9             -6.2324223241      -53.8722574004       12.9548200000  MEMB      2               0.0000000000
       112         2  CHL1      H9             -7.0702385350      -53.1485686306       13.0479000000  MEMB      2               0.0000000000
       113         2  CHL1      C10            -5.6570450604      -54.3542733968       14.3130000000  MEMB      2               0.0000000000
       114         2  CHL1      C19            -4.4118588276      -55.2503851018       14.0119000000  MEMB      2               0.0000000000
       115         2  CHL1      H19A           -4.7029117885      -56.2359790027       13.5897500000  MEMB      2               0.0000000000
       116         2  CHL1      H19B           -3.7188158382      -54.8636836996       13.2344200000  MEMB      2               0.0000000000
       117         2  CHL1      H19C           -3.7953556914      -55.4539853215       14.9134600000  MEMB      2               0.0000000000
       118         2  CHL1      C1             -5.2583270411      -53.0507572140       15.0996600000  MEMB      2               0.0000000000
       119         2  CHL1      H1A            -4.4291509884      -52.5850588974       14.5252700000  MEMB      2               0.0000000000
       120         2  CHL1      H1B            -6.0504407267      -52.2779055846       15.0018300000  MEMB      2               0.0000000000
       121         2  CHL1      C2             -4.9446599771      -53.4290733266       16.6178500000  MEMB      2               0.0000000000
       122         2  CHL1      H2A            -4.8195988943      -52.5290228257       17.2570700000  MEMB      2               0.0000000000
       123         2  CHL1      H2B            -3.9659123930      -53.9543711443       16.5970300000  MEMB      2               0.0000000000
       124         2  CHL1      C20            -6.5030940635      -53.6436774660        7.2919500000  MEMB      2               0.0000000000
       125         2  CHL1      H20            -5.9266567653      -54.5838294822        7.1572800000  MEMB      2               0.0000000000
       126         2  CHL1      C21            -5.7716251544      -52.3758127812        7.1777200000  MEMB      2               0.0000000000
       127         2  CHL1      H21A           -6.2796536869      -51.5799902609        7.7632900000  MEMB      2               0.0000000000
       128         2  CHL1      H21B           -5.4897818514      -52.0823361287        6.1439100000  MEMB      2               0.0000000000
       129         2  CHL1      H21C           -4.7906154022      -52.5243303115        7.6776000000  MEMB      2               0.0000000000
       130         2  CHL1      C22            -7.5149718437      -53.8231502777        6.1154900000  MEMB      2               0.0000000000
       131         2  CHL1      H22A           -7.8594165366      -54.8786610597        6.0759100000  MEMB      2               0.0000000000
       132         2  CHL1      H22B           -8.3310357907      -53.1378092160        6.4296000000  MEMB      2               0.0000000000
       133         2  CHL1      C23            -7.1094927425      -53.3882441715        4.6998100000  MEMB      2               0.0000000000
       134         2  CHL1      H23A           -7.1282403386      -52.2774612262        4.6877500000  MEMB      2               0.0000000000
       135         2  CHL1      H23B           -6.1215416606      -53.7653027177        4.3590900000  MEMB      2               0.0000000000
       136         2  CHL1      C24            -8.1701895920      -53.7577901177        3.6947800000  MEMB      2               0.0000000000
       137         2  CHL1      H24A           -8.1149077258      -54.8471124198        3.4835000000  MEMB      2               0.0000000000
       138         2  CHL1      H24B           -9.1158839236      -53.5993868872        4.2559400000  MEMB      2               0.0000000000
       139         2  CHL1      C25            -8.2920053156      -52.8783232626        2.4440100000  MEMB      2               0.0000000000
       140         2  CHL1      H25            -8.2657663042      -51.8173098586        2.7724700000  MEMB      2               0.0000000000
       141         2  CHL1      C26            -7.0924528690      -53.0444329275        1.5205500000  MEMB      2               0.0000000000
       142         2  CHL1      H26A           -6.8263252121      -54.1207910264        1.4502300000  MEMB      2               0.0000000000
       143         2  CHL1      H26B           -7.2736357784      -52.7347964659        0.4690600000  MEMB      2               0.0000000000
       144         2  CHL1      H26C           -6.2150714442      -52.4959964752        1.9252000000  MEMB      2               0.0000000000
       145         2  CHL1      C27            -9.5614368024      -53.0702619925        1.5675300000  MEMB      2               0.0000000000
       146         2  CHL1      H27A          -10.4805941685      -52.8873465780        2.1642000000  MEMB      2               0.0000000000
       147         2  CHL1      H27B           -9.5642876236      -52.4733206934        0.6305200000  MEMB      2               0.0000000000
       148         2  CHL1      H27C           -9.5676428876      -54.1354372073        1.2518200000  MEMB      2               0.0000000000
       149         3  CHL1      C3             42.6268754814       -7.5220305700       17.3095300000  MEMB      3               0.0000000000
       150         3  CHL1      H3             43.6408162316       -7.9396327847       17.1310600000  MEMB      3               0.0000000000
       151         3  CHL1      O3             42.3362435186       -7.3522332500       18.6904700000  MEMB      3               0.0000000000
       152         3  CHL1      H3'            43.0108586774       -6.8058578384       19.1003100000  MEMB      3               0.0000000000
       153         3  CHL1      C4             42.5138572552       -6.1342476873       16.6196900000  MEMB      3               0.0000000000
       154         3  CHL1      H4A            41.4849393411       -5.7757199760       16.8367600000  MEMB      3               0.0000000000
       155         3  CHL1      H4B            43.2393822538       -5.4918804103       17.1631100000  MEMB      3               0.0000000000
       156         3  CHL1      C5             42.6326835756       -6.1635442566       15.1076300000  MEMB      3               0.0000000000
       157         3  CHL1      C6             43.5210896650       -5.4442444465       14.4988400000  MEMB      3               0.0000000000
       158         3  CHL1      H6             44.1700024600       -4.7656313814       15.0719000000  MEMB      3               0.0000000000
       159         3  CHL1      C7             43.8169469856       -5.5569700797       13.0301200000  MEMB      3               0.0000000000
       160         3  CHL1      H7A            44.1050140367       -4.5960180443       12.5527300000  MEMB      3               0.0000000000
       161         3  CHL1      H7B            44.6549026477       -6.2852870665       12.9886700000  MEMB      3               0.0000000000
       162         3  CHL1      C8             42.6254612665       -6.0891230859       12.2653700000  MEMB      3               0.0000000000
       163         3  CHL1      H8             41.7939320705       -5.3773546197       12.4557600000  MEMB      3               0.0000000000
       164         3  CHL1      C14            43.0047519309       -6.3957373647       10.8449700000  MEMB      3               0.0000000000
       165         3  CHL1      H14            43.7392866247       -7.2201456509       10.9680100000  MEMB      3               0.0000000000
       166         3  CHL1      C15            43.8416539401       -5.4256183317       10.0535200000  MEMB      3               0.0000000000
       167         3  CHL1      H15A           43.4575129322       -4.4102066608       10.2894800000  MEMB      3               0.0000000000
       168         3  CHL1      H15B           44.9320408068       -5.4924087111       10.2558100000  MEMB      3               0.0000000000
       169         3  CHL1      C16            43.5663678892       -5.8849379448        8.5818900000  MEMB      3               0.0000000000
       170         3  CHL1      H16A           42.9246517201       -5.0364933950        8.2614800000  MEMB      3               0.0000000000
       171         3  CHL1      H16B           44.4957010370       -6.1158578941        8.0185500000  MEMB      3               0.0000000000
       172         3  CHL1      C17            42.6817557120       -7.1397183259        8.6493000000  MEMB      3               0.0000000000
       173         3  CHL1      H17            43.4485712550       -7.9248595562        8.8221500000  MEMB      3               0.0000000000
       174         3  CHL1      C13            41.9153311454       -6.9910230395        9.9564400000  MEMB      3               0.0000000000
       175         3  CHL1      C18            40.7492697848       -5.9378547933        9.8548000000  MEMB      3               0.0000000000
       176         3  CHL1      H18A           40.2988118088       -5.8815154797       10.8688200000  MEMB      3               0.0000000000
       177         3  CHL1      H18B           41.2265539209       -4.9653016737        9.6084800000  MEMB      3               0.0000000000
       178         3  CHL1      H18C           39.9477325232       -6.1803449431        9.1246900000  MEMB      3               0.0000000000
       179         3  CHL1      C12            41.4775091365       -8.2946350323       10.5542400000  MEMB      3               0.0000000000
       180         3  CHL1      H12A           40.5358685611       -8.6142737459       10.0588000000  MEMB      3               0.0000000000
       181         3  CHL1      H12B           42.2973253650       -9.0259718452       10.3888000000  MEMB      3               0.0000000000
       182         3  CHL1      C11            41.1803943935       -8.2416055078       12.0652100000  MEMB      3               0.0000000000
       183         3  CHL1      H11A           40.1564174325       -7.8105777587       12.0610800000  MEMB      3               0.0000000000
       184         3  CHL1      H11B           41.1150602680       -9.2124925221       12.6013400000  MEMB      3               0.0000000000
       185         3  CHL1      C9             42.2189309401       -7.4467956068       12.9299900000  MEMB      3               0.0000000000
       186         3  CHL1      H9             43.0915804271       -8.1343780406       12.9249200000  MEMB      3               0.0000000000
       187         3  CHL1      C10            41.7981903548       -7.2664738688       14.3900700000  MEMB      3               0.0000000000
       188         3  CHL1      C19            40.2735698010       -6.8359427065       14.3743500000  MEMB      3               0.0000000000
       189         3  CHL1      H19A           39.9056541694       -6.2494345157       15.2432400000  MEMB      3               0.0000000000
       190         3  CHL1      H19B           40.1513585287       -6.1454990959       13.5125700000  MEMB      3               0.0000000000
       191         3  CHL1      H19C           39.6051427999       -7.7157676724       14.2584500000  MEMB      3               0.0000000000
       192         3  CHL1      C1             41.9015708053       -8.6694921339       15.1664600000  MEMB      3               0.0000000000
       193         3  CHL1      H1A            41.2798337265       -9.4142809623       14.6251100000  MEMB      3               0.0000000000
       194         3  CHL1      H1B            42.9601741028       -9.0043567746       15.1271900000  MEMB      3               0.0000000000
       195         3  CHL1      C2             41.6357653848       -8.4887192871       16.6737300000  MEMB      3               0.0000000000
       196         3  CHL1      H2A            41.8644254320       -9.4211694406       17.2328200000  MEMB      3               0.0000000000
       197         3  CHL1      H2B            40.5734562535       -8.2067599022       16.8359900000  MEMB      3               0.0000000000
       198         3  CHL1      C20            41.8105770756       -7.3498103551        7.4328600000  MEMB      3               0.0000000000
       199         3  CHL1      H20            40.7985937125       -6.9180299375        7.5870100000  MEMB      3               0.0000000000
       200         3  CHL1      C21            41.6893047998       -8.8675823783        7.2456700000  MEMB      3               0.0000000000
       201         3  CHL1      H21A           42.6710830307       -9.3559231424        7.0669000000  MEMB      3               0.0000000000
       202         3  CHL1      H21B           40.9787300522       -8.9871303774        6.4000300000  MEMB      3               0.0000000000
       203         3  CHL1      H21C           41.2238071820       -9.3249466195        8.1448100000  MEMB      3               0.0000000000
       204         3  CHL1      C22            42.4538384827       -6.6886052541        6.1123100000  MEMB      3               0.0000000000
       205         3  CHL1      H22A           42.5780827286       -5.5882435728        6.2022800000  MEMB      3               0.0000000000
       206         3  CHL1      H22B           43.4133197727       -7.2454212591        6.0517200000  MEMB      3               0.0000000000
       207         3  CHL1      C23            41.7901784849       -7.0318839446        4.7688500000  MEMB      3               0.0000000000
       208         3  CHL1      H23A           41.9662338080       -8.1122921868        4.5789900000  MEMB      3               0.0000000000
       209         3  CHL1      H23B           40.7100027851       -6.7741721047        4.7353500000  MEMB      3               0.0000000000
       210         3  CHL1      C24            42.4896941939       -6.3135191199        3.5343500000  MEMB      3               0.0000000000
       211         3  CHL1      H24A           42.3477421167       -5.2418405069        3.7906100000  MEMB      3               0.0000000000
       212         3  CHL1      H24B           43.5566554118       -6.6151016924        3.4640100000  MEMB      3               0.0000000000
       213         3  CHL1      C25            41.8220340268       -6.5332948038        2.2025500000  MEMB      3               0.0000000000
       214         3  CHL1      H25            41.7458114568       -7.6144386904        1.9583700000  MEMB      3               0.0000000000
       215         3  CHL1      C26            40.3800902376       -6.1156788488        2.1229200000  MEMB      3               0.0000000000
       216         3  CHL1      H26A           39.7040112510       -6.8044083475        2.6732700000  MEMB      3               0.0000000000
       217         3  CHL1      H26B           40.3287868379       -5.1582161040        2.6841400000  MEMB      3               0.0000000000
       218         3  CHL1      H26C           40.0469139517       -6.0654701615        1.0642500000  MEMB      3               0.0000000000
       219         3  CHL1      C27            42.5937950635       -5.7037083844        1.1494300000  MEMB      3               0.0000000000
       220         3  CHL1      H27A           42.1305268984       -5.8376912952        0.1485500000  MEMB      3               0.0000000000
       221         3  CHL1      H27B           42.6791655698       -4.6157142962        1.3574900000  MEMB      3               0.0000000000
       222         3  CHL1      H27C           43.6700614593       -5.9522768638        1.0303000000  MEMB      3               0.0000000000
       223         4  CHL1      C3            -57.5669814230      -36.2436672271       17.3965600000  MEMB      4               0.0000000000
       224         4  CHL1      H3            -57.9497239625      -37.2574472345       17.6417100000  MEMB      4               0.0000000000
       225         4  CHL1      O3            -57.6606049770      -35.4653271729       18.6034400000  MEMB      4               0.0000000000
       226         4  CHL1      H3'           -58.4822419368      -35.7373183404       19.0188000000  MEMB      4               0.0000000000
       227         4  CHL1      C4            -56.1144509766      -36.2129191056       16.8620400000  MEMB      4               0.0000000000
       228         4  CHL1      H4A           -55.7372341216      -35.1697780660       16.9242100000  MEMB      4               0.0000000000
       229         4  CHL1      H4B           -55.5104765058      -36.8106982169       17.5777200000  MEMB      4               0.0000000000
       230         4  CHL1      C5            -56.0091600210      -36.6448171506       15.4296600000  MEMB      4               0.0000000000
       231         4  CHL1      C6            -55.0224253706      -37.5360236098       15.0961000000  MEMB      4               0.0000000000
       232         4  CHL1      H6            -54.3070621352      -37.9237651777       15.8363200000  MEMB      4               0.0000000000
       233         4  CHL1      C7            -54.8827375390      -38.0071783985       13.6487400000  MEMB      4               0.0000000000
       234         4  CHL1      H7A           -53.8161742699      -37.9282607495       13.3478300000  MEMB      4               0.0000000000
       235         4  CHL1      H7B           -55.2513157260      -39.0369556656       13.4537300000  MEMB      4               0.0000000000
       236         4  CHL1      C8            -55.6155229744      -37.0272506189       12.6087200000  MEMB      4               0.0000000000
       237         4  CHL1      H8            -55.1385137592      -36.0242613830       12.6366300000  MEMB      4               0.0000000000
       238         4  CHL1      C14           -55.6242481363      -37.6552746467       11.2560800000  MEMB      4               0.0000000000
       239         4  CHL1      H14           -56.1905194215      -38.5887044083       11.4619300000  MEMB      4               0.0000000000
       240         4  CHL1      C15           -54.2545406023      -38.0908958953       10.6643900000  MEMB      4               0.0000000000
       241         4  CHL1      H15A          -53.5394456916      -37.2577777706       10.8343300000  MEMB      4               0.0000000000
       242         4  CHL1      H15B          -53.9148243549      -38.9139774459       11.3288100000  MEMB      4               0.0000000000
       243         4  CHL1      C16           -54.6101514841      -38.3751267183        9.2248300000  MEMB      4               0.0000000000
       244         4  CHL1      H16A          -53.8140816839      -37.8294688592        8.6745100000  MEMB      4               0.0000000000
       245         4  CHL1      H16B          -54.5996714399      -39.4571589094        8.9729900000  MEMB      4               0.0000000000
       246         4  CHL1      C17           -56.0644778123      -37.8231716222        8.9733900000  MEMB      4               0.0000000000
       247         4  CHL1      H17           -56.7105568024      -38.7215445338        9.0725500000  MEMB      4               0.0000000000
       248         4  CHL1      C13           -56.3723934983      -36.9604619870       10.2019500000  MEMB      4               0.0000000000
       249         4  CHL1      C18           -55.7176640541      -35.5639686827        9.9861900000  MEMB      4               0.0000000000
       250         4  CHL1      H18A          -54.6087526895      -35.6184036508        9.9453500000  MEMB      4               0.0000000000
       251         4  CHL1      H18B          -56.0252885568      -34.9933603863        9.0839200000  MEMB      4               0.0000000000
       252         4  CHL1      H18C          -55.8768812226      -34.7973138723       10.7743600000  MEMB      4               0.0000000000
       253         4  CHL1      C12           -57.8539767165      -36.9231402314       10.6913800000  MEMB      4               0.0000000000
       254         4  CHL1      H12A          -58.5372870750      -36.4928431847        9.9283300000  MEMB      4               0.0000000000
       255         4  CHL1      H12B          -58.1164270619      -37.9734186998       10.9410900000  MEMB      4               0.0000000000
       256         4  CHL1      C11           -57.9785808006      -36.1882427146       12.0146500000  MEMB      4               0.0000000000
       257         4  CHL1      H11A          -57.5532789529      -35.1660721299       11.9219200000  MEMB      4               0.0000000000
       258         4  CHL1      H11B          -59.0233874754      -36.1287985495       12.3877100000  MEMB      4               0.0000000000
       259         4  CHL1      C9            -57.0814660829      -36.7843665053       13.0644600000  MEMB      4               0.0000000000
       260         4  CHL1      H9            -57.4669087558      -37.7838927489       13.3589000000  MEMB      4               0.0000000000
       261         4  CHL1      C10           -57.1025556480      -36.0484741843       14.4640400000  MEMB      4               0.0000000000
       262         4  CHL1      C19           -56.9152264963      -34.5205763940       14.2846000000  MEMB      4               0.0000000000
       263         4  CHL1      H19A          -56.6847401958      -34.0081490179       15.2430400000  MEMB      4               0.0000000000
       264         4  CHL1      H19B          -56.1667046761      -34.2217396170       13.5199200000  MEMB      4               0.0000000000
       265         4  CHL1      H19C          -57.8973078678      -34.0875039937       13.9977300000  MEMB      4               0.0000000000
       266         4  CHL1      C1            -58.5504431555      -36.2820576063       15.0263100000  MEMB      4               0.0000000000
       267         4  CHL1      H1A           -59.3967801631      -35.8335875550       14.4633600000  MEMB      4               0.0000000000
       268         4  CHL1      H1B           -58.6953887763      -37.3834032869       15.0077800000  MEMB      4               0.0000000000
       269         4  CHL1      C2            -58.6240929321      -35.6566831114       16.4059200000  MEMB      4               0.0000000000
       270         4  CHL1      H2A           -59.6458122977      -35.8628153697       16.7905200000  MEMB      4               0.0000000000
       271         4  CHL1      H2B           -58.4794119252      -34.5594106211       16.3090800000  MEMB      4               0.0000000000
       272         4  CHL1      C20           -56.3474148810      -37.3405941830        7.4800500000  MEMB      4               0.0000000000
       273         4  CHL1      H20           -55.8590094075      -36.3580395207        7.3057500000  MEMB      4               0.0000000000
       274         4  CHL1      C21           -57.8979226799      -37.3101202790        7.3190900000  MEMB      4               0.0000000000
       275         4  CHL1      H21A          -58.2970002738      -38.3268309176        7.5224400000  MEMB      4               0.0000000000
       276         4  CHL1      H21B          -58.2368706551      -37.0438304096        6.2951100000  MEMB      4               0.0000000000
       277         4  CHL1      H21C          -58.2676964168      -36.5705259569        8.0611000000  MEMB      4               0.0000000000
       278         4  CHL1      C22           -55.7281326949      -38.2867192629        6.4653200000  MEMB      4               0.0000000000
       279         4  CHL1      H22A          -54.6750883541      -38.6152820818        6.5974900000  MEMB      4               0.0000000000
       280         4  CHL1      H22B          -56.0479804692      -39.3450111172        6.5749200000  MEMB      4               0.0000000000
       281         4  CHL1      C23           -55.6714222021      -37.6599144225        5.0588600000  MEMB      4               0.0000000000
       282         4  CHL1      H23A          -56.6507356226      -37.2507633296        4.7304400000  MEMB      4               0.0000000000
       283         4  CHL1      H23B          -55.0873974357      -36.7156726488        5.0991500000  MEMB      4               0.0000000000
       284         4  CHL1      C24           -55.0366072941      -38.6201607116        4.0749300000  MEMB      4               0.0000000000
       285         4  CHL1      H24A          -54.0073093994      -38.9233937694        4.3629000000  MEMB      4               0.0000000000
       286         4  CHL1      H24B          -55.5992333601      -39.5739202070        3.9849100000  MEMB      4               0.0000000000
       287         4  CHL1      C25           -54.7477085300      -38.0265456603        2.7242800000  MEMB      4               0.0000000000
       288         4  CHL1      H25           -54.3054718749      -37.0442229764        2.9959400000  MEMB      4               0.0000000000
       289         4  CHL1      C26           -53.6886292677      -38.8091947779        1.9642600000  MEMB      4               0.0000000000
       290         4  CHL1      H26A          -53.3414371986      -38.2326029219        1.0803300000  MEMB      4               0.0000000000
       291         4  CHL1      H26B          -52.7192420286      -38.9064242565        2.4982500000  MEMB      4               0.0000000000
       292         4  CHL1      H26C          -53.9893670198      -39.8585269419        1.7574400000  MEMB      4               0.0000000000
       293         4  CHL1      C27           -56.0730708914      -37.9444738476        1.9034600000  MEMB      4               0.0000000000
       294         4  CHL1      H27A          -56.4452119840      -38.9134594812        1.5073400000  MEMB      4               0.0000000000
       295         4  CHL1      H27B          -56.8431146498      -37.4341573492        2.5206500000  MEMB      4               0.0000000000
       296         4  CHL1      H27C          -56.0564965479      -37.3020038222        0.9972100000  MEMB      4               0.0000000000
       297         5  CHL1      C3            -41.2037692742      -40.2192272418       17.2865300000  MEMB      5               0.0000000000
       298         5  CHL1      H3            -40.0997796973      -40.2088937729       17.1623900000  MEMB      5               0.0000000000
       299         5  CHL1      O3            -41.4464619258      -40.2740929582       18.7134700000  MEMB      5               0.0000000000
       300         5  CHL1      H3'           -41.3916784246      -39.3405365547       18.9304100000  MEMB      5               0.0000000000
       301         5  CHL1      C4            -41.9000947382      -39.0290786089       16.5567000000  MEMB      5               0.0000000000
       302         5  CHL1      H4A           -42.9012153395      -38.9405678652       17.0302500000  MEMB      5               0.0000000000
       303         5  CHL1      H4B           -41.3712607972      -38.0955115295       16.8449700000  MEMB      5               0.0000000000
       304         5  CHL1      C5            -41.9031130392      -39.1713359249       15.0326900000  MEMB      5               0.0000000000
       305         5  CHL1      C6            -41.6519624905      -38.0581950699       14.3051000000  MEMB      5               0.0000000000
       306         5  CHL1      H6            -41.3191721373      -37.1872179115       14.8887500000  MEMB      5               0.0000000000
       307         5  CHL1      C7            -41.6935216344      -37.8959749181       12.7944400000  MEMB      5               0.0000000000
       308         5  CHL1      H7A           -42.1279988786      -36.9023820132       12.5529200000  MEMB      5               0.0000000000
       309         5  CHL1      H7B           -40.6240129921      -37.8462267914       12.4977900000  MEMB      5               0.0000000000
       310         5  CHL1      C8            -42.4092624784      -39.1653717169       12.1093400000  MEMB      5               0.0000000000
       311         5  CHL1      H8            -43.5069496604      -39.0442960921       12.2308200000  MEMB      5               0.0000000000
       312         5  CHL1      C14           -42.0032743734      -39.2698622098       10.6904500000  MEMB      5               0.0000000000
       313         5  CHL1      H14           -40.9395342950      -39.5841800109       10.6273600000  MEMB      5               0.0000000000
       314         5  CHL1      C15           -42.3147949428      -38.1052617579        9.7439500000  MEMB      5               0.0000000000
       315         5  CHL1      H15A          -43.3765966332      -37.8084682614        9.8811100000  MEMB      5               0.0000000000
       316         5  CHL1      H15B          -41.8091249886      -37.1670182358       10.0575000000  MEMB      5               0.0000000000
       317         5  CHL1      C16           -42.1504819437      -38.6908897348        8.3600900000  MEMB      5               0.0000000000
       318         5  CHL1      H16A          -43.0468933448      -38.3248911611        7.8152900000  MEMB      5               0.0000000000
       319         5  CHL1      H16B          -41.2496956630      -38.3392902983        7.8130100000  MEMB      5               0.0000000000
       320         5  CHL1      C17           -41.9697796881      -40.2366308140        8.4858500000  MEMB      5               0.0000000000
       321         5  CHL1      H17           -40.8688743483      -40.3581273435        8.3987800000  MEMB      5               0.0000000000
       322         5  CHL1      C13           -42.5104441175      -40.4942397890        9.9104600000  MEMB      5               0.0000000000
       323         5  CHL1      C18           -44.0864910371      -40.4748909840        9.8601700000  MEMB      5               0.0000000000
       324         5  CHL1      H18A          -44.6585610623      -40.6235383760       10.8008900000  MEMB      5               0.0000000000
       325         5  CHL1      H18B          -44.4082046521      -39.5007983469        9.4336100000  MEMB      5               0.0000000000
       326         5  CHL1      H18C          -44.4752532752      -41.1881655784        9.1022600000  MEMB      5               0.0000000000
       327         5  CHL1      C12           -42.0342296138      -41.7817522537       10.6596800000  MEMB      5               0.0000000000
       328         5  CHL1      H12A          -42.3155634553      -42.6602820208       10.0405100000  MEMB      5               0.0000000000
       329         5  CHL1      H12B          -40.9260774222      -41.8363815930       10.6019400000  MEMB      5               0.0000000000
       330         5  CHL1      C11           -42.2991552510      -41.7198173042       12.1368400000  MEMB      5               0.0000000000
       331         5  CHL1      H11A          -43.4034762090      -41.8343875280       12.0961000000  MEMB      5               0.0000000000
       332         5  CHL1      H11B          -41.7911929574      -42.5726629444       12.6357800000  MEMB      5               0.0000000000
       333         5  CHL1      C9            -41.8982537555      -40.3980763180       12.8938800000  MEMB      5               0.0000000000
       334         5  CHL1      H9            -40.7924526584      -40.3847596136       12.7873800000  MEMB      5               0.0000000000
       335         5  CHL1      C10           -42.1972893153      -40.4372284190       14.3992900000  MEMB      5               0.0000000000
       336         5  CHL1      C19           -43.7023465084      -40.7226060089       14.4811900000  MEMB      5               0.0000000000
       337         5  CHL1      H19A          -44.0662643456      -40.5409249779       15.5150600000  MEMB      5               0.0000000000
       338         5  CHL1      H19B          -44.2318496992      -40.0025465059       13.8212900000  MEMB      5               0.0000000000
       339         5  CHL1      H19C          -43.8977328742      -41.7698035783       14.1657400000  MEMB      5               0.0000000000
       340         5  CHL1      C1            -41.4580237414      -41.5357637965       15.1070600000  MEMB      5               0.0000000000
       341         5  CHL1      H1A           -41.8011744617      -42.5392486216       14.7760100000  MEMB      5               0.0000000000
       342         5  CHL1      H1B           -40.3625855994      -41.5506542500       14.9223500000  MEMB      5               0.0000000000
       343         5  CHL1      C2            -41.6729207478      -41.5384051670       16.6553500000  MEMB      5               0.0000000000
       344         5  CHL1      H2A           -41.0720844933      -42.3015139642       17.1947800000  MEMB      5               0.0000000000
       345         5  CHL1      H2B           -42.7469832023      -41.7552533311       16.8389200000  MEMB      5               0.0000000000
       346         5  CHL1      C20           -42.5309706602      -41.0254226640        7.2564100000  MEMB      5               0.0000000000
       347         5  CHL1      H20           -43.5737402569      -40.6537293578        7.1626700000  MEMB      5               0.0000000000
       348         5  CHL1      C21           -42.3726494397      -42.5218015010        7.4355700000  MEMB      5               0.0000000000
       349         5  CHL1      H21A          -41.3414079278      -42.9075932383        7.5839800000  MEMB      5               0.0000000000
       350         5  CHL1      H21B          -42.6818008583      -43.1273023434        6.5568700000  MEMB      5               0.0000000000
       351         5  CHL1      H21C          -43.1003519630      -42.8678882063        8.2004300000  MEMB      5               0.0000000000
       352         5  CHL1      C22           -41.7284395608      -40.5810945646        5.9499100000  MEMB      5               0.0000000000
       353         5  CHL1      H22A          -41.3701826059      -39.5298349170        5.9215600000  MEMB      5               0.0000000000
       354         5  CHL1      H22B          -40.8297396262      -41.2268748725        5.8518300000  MEMB      5               0.0000000000
       355         5  CHL1      C23           -42.5880784680      -40.7124530636        4.6594000000  MEMB      5               0.0000000000
       356         5  CHL1      H23A          -43.3481966053      -41.5100908527        4.8019100000  MEMB      5               0.0000000000
       357         5  CHL1      H23B          -43.2461924471      -39.8314937159        4.5009500000  MEMB      5               0.0000000000
       358         5  CHL1      C24           -41.8343494087      -40.8835908461        3.2869300000  MEMB      5               0.0000000000
       359         5  CHL1      H24A          -41.1617624875      -40.0010439508        3.2315800000  MEMB      5               0.0000000000
       360         5  CHL1      H24B          -41.3093466360      -41.8374535412        3.5079500000  MEMB      5               0.0000000000
       361         5  CHL1      C25           -42.7702909531      -40.9900399582        2.0768400000  MEMB      5               0.0000000000
       362         5  CHL1      H25           -43.4399567272      -40.1043709891        2.0387400000  MEMB      5               0.0000000000
       363         5  CHL1      C26           -41.9329379119      -41.2849535952        0.8284400000  MEMB      5               0.0000000000
       364         5  CHL1      H26A          -41.1492604769      -40.5587708548        0.5237600000  MEMB      5               0.0000000000
       365         5  CHL1      H26B          -41.5303865343      -42.3162488017        0.9217800000  MEMB      5               0.0000000000
       366         5  CHL1      H26C          -42.6115904611      -41.2507421813       -0.0505300000  MEMB      5               0.0000000000
       367         5  CHL1      C27           -43.7941667916      -42.1756520332        2.1149100000  MEMB      5               0.0000000000
       368         5  CHL1      H27A          -44.3920210220      -42.0814164919        3.0465800000  MEMB      5               0.0000000000
       369         5  CHL1      H27B          -44.5449837545      -42.2773497003        1.3023500000  MEMB      5               0.0000000000
       370         5  CHL1      H27C          -43.2264762361      -43.1294581391        2.1630000000  MEMB      5               0.0000000000
       371         6  CHL1      C3            -35.6592443124      -33.8276608851       17.3219850000  MEMB      6               0.0000000000
       372         6  CHL1      H3            -35.8483975026      -32.7378794922       17.2174850000  MEMB      6               0.0000000000
       373         6  CHL1      O3            -35.3621394876      -34.0367465149       18.6780150000  MEMB      6               0.0000000000
       374         6  CHL1      H3'           -36.2487771156      -34.0429202163       19.0460450000  MEMB      6               0.0000000000
       375         6  CHL1      C4            -36.8602362348      -34.6630681233       16.9436350000  MEMB      6               0.0000000000
       376         6  CHL1      H4A           -36.5996883820      -35.7029954588       17.2351550000  MEMB      6               0.0000000000
       377         6  CHL1      H4B           -37.7376515074      -34.3559382907       17.5520250000  MEMB      6               0.0000000000
       378         6  CHL1      C5            -37.2249723466      -34.7490284470       15.4631050000  MEMB      6               0.0000000000
       379         6  CHL1      C6            -38.4988928908      -34.8081698878       15.0476350000  MEMB      6               0.0000000000
       380         6  CHL1      H6            -39.3437015019      -34.8020042114       15.7520950000  MEMB      6               0.0000000000
       381         6  CHL1      C7            -39.0279600202      -34.8269000609       13.6542750000  MEMB      6               0.0000000000
       382         6  CHL1      H7A           -39.7816218226      -35.6406081876       13.5895350000  MEMB      6               0.0000000000
       383         6  CHL1      H7B           -39.3808305265      -33.8020088374       13.4105350000  MEMB      6               0.0000000000
       384         6  CHL1      C8            -37.8116136389      -35.1139327690       12.6808650000  MEMB      6               0.0000000000
       385         6  CHL1      H8            -37.7971565152      -36.2139803664       12.8357450000  MEMB      6               0.0000000000
       386         6  CHL1      C14           -38.1571854733      -34.8210627468       11.2092750000  MEMB      6               0.0000000000
       387         6  CHL1      H14           -38.0843902514      -33.7167062400       11.1122950000  MEMB      6               0.0000000000
       388         6  CHL1      C15           -39.4838039561      -35.2761062546       10.6331050000  MEMB      6               0.0000000000
       389         6  CHL1      H15A          -39.7281124136      -36.3130824638       10.9482450000  MEMB      6               0.0000000000
       390         6  CHL1      H15B          -40.2913218654      -34.5892823621       10.9655450000  MEMB      6               0.0000000000
       391         6  CHL1      C16           -39.2554413124      -35.4838407658        9.1260750000  MEMB      6               0.0000000000
       392         6  CHL1      H16A          -39.3496824420      -36.5695194719        8.9098750000  MEMB      6               0.0000000000
       393         6  CHL1      H16B          -39.9182346847      -34.9021340313        8.4503250000  MEMB      6               0.0000000000
       394         6  CHL1      C17           -37.8064159348      -35.0988272709        8.8568550000  MEMB      6               0.0000000000
       395         6  CHL1      H17           -37.7425519781      -33.9964081597        8.7347750000  MEMB      6               0.0000000000
       396         6  CHL1      C13           -37.0776780429      -35.2854895473       10.2175150000  MEMB      6               0.0000000000
       397         6  CHL1      C18           -36.7398593840      -36.8063752106       10.3130250000  MEMB      6               0.0000000000
       398         6  CHL1      H18A          -37.6807165868      -37.3512532339       10.0845150000  MEMB      6               0.0000000000
       399         6  CHL1      H18B          -35.8589147177      -37.1166721049        9.7113750000  MEMB      6               0.0000000000
       400         6  CHL1      H18C          -36.5804480000      -37.1172978423       11.3676550000  MEMB      6               0.0000000000
       401         6  CHL1      C12           -35.8013972500      -34.4409014118       10.5049050000  MEMB      6               0.0000000000
       402         6  CHL1      H12A          -34.9528929313      -34.8830987547        9.9402550000  MEMB      6               0.0000000000
       403         6  CHL1      H12B          -36.0336617276      -33.3989962280       10.1970050000  MEMB      6               0.0000000000
       404         6  CHL1      C11           -35.3758952035      -34.5318331865       11.9863850000  MEMB      6               0.0000000000
       405         6  CHL1      H11A          -34.9196661160      -35.5387042908       12.0976950000  MEMB      6               0.0000000000
       406         6  CHL1      H11B          -34.5810623986      -33.7635651033       12.0974350000  MEMB      6               0.0000000000
       407         6  CHL1      C9            -36.5141764093      -34.4318578249       13.0607050000  MEMB      6               0.0000000000
       408         6  CHL1      H9            -36.7625982223      -33.3584335514       13.2034150000  MEMB      6               0.0000000000
       409         6  CHL1      C10           -36.0583516274      -34.7537933171       14.4970250000  MEMB      6               0.0000000000
       410         6  CHL1      C19           -35.5299247276      -36.2174380901       14.5685650000  MEMB      6               0.0000000000
       411         6  CHL1      H19A          -36.2465415059      -36.8354429960       13.9864550000  MEMB      6               0.0000000000
       412         6  CHL1      H19B          -34.5379134211      -36.3456318685       14.0850450000  MEMB      6               0.0000000000
       413         6  CHL1      H19C          -35.4175431666      -36.6272934209       15.5950750000  MEMB      6               0.0000000000
       414         6  CHL1      C1            -34.8938294991      -33.9018143977       14.9941750000  MEMB      6               0.0000000000
       415         6  CHL1      H1A           -33.9926733092      -34.0364968654       14.3584950000  MEMB      6               0.0000000000
       416         6  CHL1      H1B           -35.2200584677      -32.8578902719       14.7989250000  MEMB      6               0.0000000000
       417         6  CHL1      C2            -34.4902251458      -34.1304140242       16.4434050000  MEMB      6               0.0000000000
       418         6  CHL1      H2A           -33.5888967780      -33.5211158550       16.6685350000  MEMB      6               0.0000000000
       419         6  CHL1      H2B           -34.0311206824      -35.1329761712       16.5790450000  MEMB      6               0.0000000000
       420         6  CHL1      C20           -37.1552660014      -35.7406905158        7.5138750000  MEMB      6               0.0000000000
       421         6  CHL1      H20           -37.1592837713      -36.8497740198        7.5789350000  MEMB      6               0.0000000000
       422         6  CHL1      C21           -35.7196777680      -35.1285548507        7.2371550000  MEMB      6               0.0000000000
       423         6  CHL1      H21A          -35.0024651648      -35.5601687430        7.9676550000  MEMB      6               0.0000000000
       424         6  CHL1      H21B          -35.6376670947      -34.0207605023        7.2566850000  MEMB      6               0.0000000000
       425         6  CHL1      H21C          -35.4696025778      -35.4035751601        6.1901850000  MEMB      6               0.0000000000
       426         6  CHL1      C22           -38.1283934091      -35.3985871022        6.3035150000  MEMB      6               0.0000000000
       427         6  CHL1      H22A          -39.1491414725      -35.7850521724        6.5109650000  MEMB      6               0.0000000000
       428         6  CHL1      H22B          -38.1502028960      -34.3284400541        6.0058150000  MEMB      6               0.0000000000
       429         6  CHL1      C23           -37.7593605042      -36.0433529030        4.9897050000  MEMB      6               0.0000000000
       430         6  CHL1      H23A          -38.6202318721      -35.7750601561        4.3406750000  MEMB      6               0.0000000000
       431         6  CHL1      H23B          -36.8505865468      -35.6348417227        4.4982150000  MEMB      6               0.0000000000
       432         6  CHL1      C24           -37.6114347609      -37.5470282505        5.0311650000  MEMB      6               0.0000000000
       433         6  CHL1      H24A          -36.6562166129      -37.7547260507        5.5591350000  MEMB      6               0.0000000000
       434         6  CHL1      H24B          -38.4364844296      -38.0691301826        5.5612850000  MEMB      6               0.0000000000
       435         6  CHL1      C25           -37.4977381995      -38.1310954524        3.5689250000  MEMB      6               0.0000000000
       436         6  CHL1      H25           -38.3690709217      -37.7580115481        2.9893450000  MEMB      6               0.0000000000
       437         6  CHL1      C26           -36.2057013048      -37.6012805694        2.8957050000  MEMB      6               0.0000000000
       438         6  CHL1      H26A          -35.3620005747      -37.4893888516        3.6098350000  MEMB      6               0.0000000000
       439         6  CHL1      H26B          -35.8466828670      -38.1747514529        2.0144850000  MEMB      6               0.0000000000
       440         6  CHL1      H26C          -36.4515847180      -36.5429206022        2.6639250000  MEMB      6               0.0000000000
       441         6  CHL1      C27           -37.4729243931      -39.6651062363        3.6132650000  MEMB      6               0.0000000000
       442         6  CHL1      H27A          -36.6546247832      -39.9924001691        4.2897150000  MEMB      6               0.0000000000
       443         6  CHL1      H27B          -38.4672273829      -39.9582887927        4.0129150000  MEMB      6               0.0000000000
       444         6  CHL1      H27C          -37.3514991076      -40.0005944134        2.5611150000  MEMB      6               0.0000000000
       445         7  CHL1      C3            -53.0071320034        1.6324183088       17.2933350000  MEMB      7               0.0000000000
       446         7  CHL1      H3            -53.9334023698        2.2217178119       17.1228250000  MEMB      7               0.0000000000
       447         7  CHL1      O3            -52.8326119966        1.3787965112       18.7066650000  MEMB      7               0.0000000000
       448         7  CHL1      H3'           -53.5681624687        0.7874099876       18.8822650000  MEMB      7               0.0000000000
       449         7  CHL1      C4            -53.1562846899        0.2093532787       16.6193150000  MEMB      7               0.0000000000
       450         7  CHL1      H4A           -52.3798988832       -0.4941418218       16.9889450000  MEMB      7               0.0000000000
       451         7  CHL1      H4B           -54.0804633658       -0.3105669051       16.9508350000  MEMB      7               0.0000000000
       452         7  CHL1      C5            -52.9966393277        0.2604381351       15.1240950000  MEMB      7               0.0000000000
       453         7  CHL1      C6            -53.7988056879       -0.4758467762       14.3864250000  MEMB      7               0.0000000000
       454         7  CHL1      H6            -54.5634447364       -1.0674919966       14.9110950000  MEMB      7               0.0000000000
       455         7  CHL1      C7            -53.5658259391       -0.5340222902       12.9000350000  MEMB      7               0.0000000000
       456         7  CHL1      H7A           -53.6682637182       -1.5779510245       12.5339050000  MEMB      7               0.0000000000
       457         7  CHL1      H7B           -54.3310252811        0.0795102297       12.3781350000  MEMB      7               0.0000000000
       458         7  CHL1      C8            -52.2096092434       -0.0749479937       12.3929650000  MEMB      7               0.0000000000
       459         7  CHL1      H8            -51.4345718687       -0.8442387767       12.5975150000  MEMB      7               0.0000000000
       460         7  CHL1      C14           -52.2641665013        0.2002284262       10.8194550000  MEMB      7               0.0000000000
       461         7  CHL1      H14           -52.9845834494        1.0424248132       10.7417750000  MEMB      7               0.0000000000
       462         7  CHL1      C15           -52.7859972916       -0.8890810830        9.8095750000  MEMB      7               0.0000000000
       463         7  CHL1      H15A          -52.4246512528       -1.8919622019       10.1225850000  MEMB      7               0.0000000000
       464         7  CHL1      H15B          -53.8890156344       -0.8498296684        9.9365350000  MEMB      7               0.0000000000
       465         7  CHL1      C16           -52.1053645236       -0.4805490334        8.4538450000  MEMB      7               0.0000000000
       466         7  CHL1      H16A          -51.3850543104       -1.2617625842        8.1295250000  MEMB      7               0.0000000000
       467         7  CHL1      H16B          -52.8119547673       -0.4590502173        7.5967550000  MEMB      7               0.0000000000
       468         7  CHL1      C17           -51.3341171531        0.8707418864        8.7598050000  MEMB      7               0.0000000000
       469         7  CHL1      H17           -52.0846620928        1.6828551300        8.6527350000  MEMB      7               0.0000000000
       470         7  CHL1      C13           -50.9874831194        0.7595721084       10.2428050000  MEMB      7               0.0000000000
       471         7  CHL1      C18           -49.8438287238       -0.1884718106       10.4592650000  MEMB      7               0.0000000000
       472         7  CHL1      H18A          -50.0417738784       -1.1822198511       10.0036350000  MEMB      7               0.0000000000
       473         7  CHL1      H18B          -48.9576155193        0.3364535185       10.0428450000  MEMB      7               0.0000000000
       474         7  CHL1      H18C          -49.5987283314       -0.2791991970       11.5390850000  MEMB      7               0.0000000000
       475         7  CHL1      C12           -50.7146813654        2.1430527819       10.9201250000  MEMB      7               0.0000000000
       476         7  CHL1      H12A          -49.7849106956        2.5709848245       10.4879850000  MEMB      7               0.0000000000
       477         7  CHL1      H12B          -51.5868872261        2.7208078739       10.5462450000  MEMB      7               0.0000000000
       478         7  CHL1      C11           -50.5964867273        2.0092797545       12.4415250000  MEMB      7               0.0000000000
       479         7  CHL1      H11A          -49.6757766035        1.4842166018       12.7745750000  MEMB      7               0.0000000000
       480         7  CHL1      H11B          -50.5497081974        2.9762428051       12.9866250000  MEMB      7               0.0000000000
       481         7  CHL1      C9            -51.8358515390        1.2758752370       13.0406050000  MEMB      7               0.0000000000
       482         7  CHL1      H9            -52.6951922356        1.9595995224       12.8721350000  MEMB      7               0.0000000000
       483         7  CHL1      C10           -51.8176815773        1.1519598470       14.6011050000  MEMB      7               0.0000000000
       484         7  CHL1      C19           -50.5295318589        0.4337311410       15.0776850000  MEMB      7               0.0000000000
       485         7  CHL1      H19A          -50.5662348402        0.3826484711       16.1868950000  MEMB      7               0.0000000000
       486         7  CHL1      H19B          -50.4629624337       -0.5742360835       14.6152050000  MEMB      7               0.0000000000
       487         7  CHL1      H19C          -49.5850016076        0.9989609085       14.9269850000  MEMB      7               0.0000000000
       488         7  CHL1      C1            -51.8306499933        2.6312813492       15.3110850000  MEMB      7               0.0000000000
       489         7  CHL1      H1A           -50.9027748526        3.1722489591       15.0269850000  MEMB      7               0.0000000000
       490         7  CHL1      H1B           -52.7329489785        3.1984099055       14.9971950000  MEMB      7               0.0000000000
       491         7  CHL1      C2            -51.8241923239        2.5330211186       16.8084350000  MEMB      7               0.0000000000
       492         7  CHL1      H2A           -52.1382089038        3.5138734311       17.2251250000  MEMB      7               0.0000000000
       493         7  CHL1      H2B           -50.8675263992        2.1335634545       17.2078450000  MEMB      7               0.0000000000
       494         7  CHL1      C20           -50.1643840074        1.0237613391        7.6673950000  MEMB      7               0.0000000000
       495         7  CHL1      H20           -49.4157000109        0.2166716890        7.8170750000  MEMB      7               0.0000000000
       496         7  CHL1      C21           -49.5972687003        2.4415823311        7.6131150000  MEMB      7               0.0000000000
       497         7  CHL1      H21A          -48.9337469396        2.6257673594        6.7412550000  MEMB      7               0.0000000000
       498         7  CHL1      H21B          -49.1065910809        2.6430312319        8.5893250000  MEMB      7               0.0000000000
       499         7  CHL1      H21C          -50.4197009247        3.1847340316        7.6882750000  MEMB      7               0.0000000000
       500         7  CHL1      C22           -50.6752753670        0.6176211860        6.2087050000  MEMB      7               0.0000000000
       501         7  CHL1      H22A          -51.2188650356       -0.3456891200        6.3130250000  MEMB      7               0.0000000000
       502         7  CHL1      H22B          -51.3680793468        1.4079261846        5.8484950000  MEMB      7               0.0000000000
       503         7  CHL1      C23           -49.5805125317        0.4126447284        5.1530450000  MEMB      7               0.0000000000
       504         7  CHL1      H23A          -48.8286232363        1.2269763702        5.0766850000  MEMB      7               0.0000000000
       505         7  CHL1      H23B          -48.9934040397       -0.4910804165        5.4230450000  MEMB      7               0.0000000000
       506         7  CHL1      C24           -50.1170173989        0.2685223814        3.7252650000  MEMB      7               0.0000000000
       507         7  CHL1      H24A          -50.8141684882       -0.5835696234        3.5761150000  MEMB      7               0.0000000000
       508         7  CHL1      H24B          -50.8178419303        1.0672040948        3.4008150000  MEMB      7               0.0000000000
       509         7  CHL1      C25           -49.0752772201        0.2994629971        2.5421550000  MEMB      7               0.0000000000
       510         7  CHL1      H25           -48.2219962245        0.9681201881        2.7853050000  MEMB      7               0.0000000000
       511         7  CHL1      C26           -48.5487323341       -1.2261164239        2.4100750000  MEMB      7               0.0000000000
       512         7  CHL1      H26A          -47.7307515214       -1.2872913177        1.6607450000  MEMB      7               0.0000000000
       513         7  CHL1      H26B          -48.3142363047       -1.6132864963        3.4246850000  MEMB      7               0.0000000000
       514         7  CHL1      H26C          -49.3275683902       -1.8533827248        1.9260550000  MEMB      7               0.0000000000
       515         7  CHL1      C27           -49.5173370667        0.7670590715        1.1994550000  MEMB      7               0.0000000000
       516         7  CHL1      H27A          -48.6529974866        0.7741991079        0.5014650000  MEMB      7               0.0000000000
       517         7  CHL1      H27B          -50.2854084123        0.1226692340        0.7207750000  MEMB      7               0.0000000000
       518         7  CHL1      H27C          -49.9655443977        1.7744977789        1.3354450000  MEMB      7               0.0000000000
       519         8  CHL1      C3            -51.6643289752      -53.0657398723       17.4021700000  MEMB      8               0.0000000000
       520         8  CHL1      H3            -51.0152593638      -53.9665724934       17.4414000000  MEMB      8               0.0000000000
       521         8  CHL1      O3            -52.1874526248      -52.5713589277       18.5978300000  MEMB      8               0.0000000000
       522         8  CHL1      H3'           -51.4452804643      -52.3699602092       19.1724700000  MEMB      8               0.0000000000
       523         8  CHL1      C4            -50.8106977144      -51.9450523338       16.8597500000  MEMB      8               0.0000000000
       524         8  CHL1      H4A           -51.3387433157      -50.9859428023       17.0484300000  MEMB      8               0.0000000000
       525         8  CHL1      H4B           -49.9847480475      -51.9400880366       17.6027900000  MEMB      8               0.0000000000
       526         8  CHL1      C5            -50.4966561077      -51.9561288228       15.3867800000  MEMB      8               0.0000000000
       527         8  CHL1      C6            -49.2341581554      -51.8161629897       14.8906500000  MEMB      8               0.0000000000
       528         8  CHL1      H6            -48.3430663320      -51.5697597779       15.4866700000  MEMB      8               0.0000000000
       529         8  CHL1      C7            -48.7635751065      -51.6583020274       13.4388400000  MEMB      8               0.0000000000
       530         8  CHL1      H7A           -48.1746490268      -50.7300261047       13.2781900000  MEMB      8               0.0000000000
       531         8  CHL1      H7B           -48.1158867210      -52.4937397097       13.0970100000  MEMB      8               0.0000000000
       532         8  CHL1      C8            -50.0411252889      -51.5078200930       12.4620300000  MEMB      8               0.0000000000
       533         8  CHL1      H8            -50.5694263986      -50.5334545064       12.5383600000  MEMB      8               0.0000000000
       534         8  CHL1      C14           -49.8546442092      -51.8398432668       10.9196400000  MEMB      8               0.0000000000
       535         8  CHL1      H14           -49.4367253949      -52.8692447131       10.9200300000  MEMB      8               0.0000000000
       536         8  CHL1      C15           -48.7343557718      -51.0515908193       10.2659200000  MEMB      8               0.0000000000
       537         8  CHL1      H15A          -48.8376730723      -49.9952427519       10.5942000000  MEMB      8               0.0000000000
       538         8  CHL1      H15B          -47.7113389309      -51.4707924063       10.3756300000  MEMB      8               0.0000000000
       539         8  CHL1      C16           -49.0353999523      -51.2151486863        8.8009900000  MEMB      8               0.0000000000
       540         8  CHL1      H16A          -49.1556547156      -50.2117383451        8.3394300000  MEMB      8               0.0000000000
       541         8  CHL1      H16B          -48.2784790482      -51.8362064114        8.2759400000  MEMB      8               0.0000000000
       542         8  CHL1      C17           -50.4437645879      -52.0439546512        8.6616200000  MEMB      8               0.0000000000
       543         8  CHL1      H17           -50.1327543430      -53.0939972160        8.4745800000  MEMB      8               0.0000000000
       544         8  CHL1      C13           -51.0858061985      -51.8618446001       10.0216800000  MEMB      8               0.0000000000
       545         8  CHL1      C18           -51.6506974950      -50.3976548238       10.0981600000  MEMB      8               0.0000000000
       546         8  CHL1      H18A          -52.1052775885      -50.1470250083       11.0804400000  MEMB      8               0.0000000000
       547         8  CHL1      H18B          -50.8635708882      -49.6328758661        9.9253500000  MEMB      8               0.0000000000
       548         8  CHL1      H18C          -52.3972010833      -50.1785445007        9.3050400000  MEMB      8               0.0000000000
       549         8  CHL1      C12           -52.0132277182      -52.9670330356       10.5281400000  MEMB      8               0.0000000000
       550         8  CHL1      H12A          -52.9094408329      -53.0945340894        9.8840400000  MEMB      8               0.0000000000
       551         8  CHL1      H12B          -51.3128402629      -53.8274581897       10.4694000000  MEMB      8               0.0000000000
       552         8  CHL1      C11           -52.3705253447      -52.6856589165       12.0241300000  MEMB      8               0.0000000000
       553         8  CHL1      H11A          -53.0444011152      -51.8037539331       12.0737600000  MEMB      8               0.0000000000
       554         8  CHL1      H11B          -52.8990952229      -53.5945657417       12.3830500000  MEMB      8               0.0000000000
       555         8  CHL1      C9            -51.1446917445      -52.4890449494       12.9773100000  MEMB      8               0.0000000000
       556         8  CHL1      H9            -50.6566293488      -53.4870906308       12.9734800000  MEMB      8               0.0000000000
       557         8  CHL1      C10           -51.7170195563      -52.1555972323       14.4119400000  MEMB      8               0.0000000000
       558         8  CHL1      C19           -52.5899621491      -50.9127276328       14.4688300000  MEMB      8               0.0000000000
       559         8  CHL1      H19A          -52.0599980267      -50.0459429655       14.0192200000  MEMB      8               0.0000000000
       560         8  CHL1      H19B          -53.6267346913      -51.0754527216       14.1042200000  MEMB      8               0.0000000000
       561         8  CHL1      H19C          -52.7420133067      -50.6010501162       15.5243200000  MEMB      8               0.0000000000
       562         8  CHL1      C1            -52.5683191076      -53.3484702162       14.9697800000  MEMB      8               0.0000000000
       563         8  CHL1      H1A           -53.4682931271      -53.3692844855       14.3186700000  MEMB      8               0.0000000000
       564         8  CHL1      H1B           -52.0173341494      -54.2663513242       14.6727600000  MEMB      8               0.0000000000
       565         8  CHL1      C2            -52.8436422821      -53.2306145906       16.4094000000  MEMB      8               0.0000000000
       566         8  CHL1      H2A           -53.4470618394      -54.1043620069       16.7361500000  MEMB      8               0.0000000000
       567         8  CHL1      H2B           -53.4889893315      -52.3410070768       16.5720200000  MEMB      8               0.0000000000
       568         8  CHL1      C20           -51.1706795518      -51.6100887082        7.3291600000  MEMB      8               0.0000000000
       569         8  CHL1      H20           -51.4208796150      -50.5277046559        7.3161700000  MEMB      8               0.0000000000
       570         8  CHL1      C21           -52.5844743419      -52.2097870079        7.2183600000  MEMB      8               0.0000000000
       571         8  CHL1      H21A          -53.1490709522      -51.3877320416        6.7286800000  MEMB      8               0.0000000000
       572         8  CHL1      H21B          -53.0502475698      -52.3578149990        8.2160900000  MEMB      8               0.0000000000
       573         8  CHL1      H21C          -52.6320022492      -53.2193065094        6.7569100000  MEMB      8               0.0000000000
       574         8  CHL1      C22           -50.3329534822      -51.7727002896        6.0290900000  MEMB      8               0.0000000000
       575         8  CHL1      H22A          -49.2721718669      -51.5552217854        6.2776600000  MEMB      8               0.0000000000
       576         8  CHL1      H22B          -50.3379168333      -52.8685755098        5.8464600000  MEMB      8               0.0000000000
       577         8  CHL1      C23           -50.7803680512      -51.0004463171        4.7821400000  MEMB      8               0.0000000000
       578         8  CHL1      H23A          -51.7365269895      -51.4063175165        4.3880000000  MEMB      8               0.0000000000
       579         8  CHL1      H23B          -51.0489068586      -49.9891370611        5.1555800000  MEMB      8               0.0000000000
       580         8  CHL1      C24           -49.6617880439      -50.7941128385        3.7178700000  MEMB      8               0.0000000000
       581         8  CHL1      H24A          -48.7028546719      -50.5576650714        4.2266500000  MEMB      8               0.0000000000
       582         8  CHL1      H24B          -49.5925388440      -51.6664160197        3.0333100000  MEMB      8               0.0000000000
       583         8  CHL1      C25           -50.0714123048      -49.6159040221        2.7524300000  MEMB      8               0.0000000000
       584         8  CHL1      H25           -50.5585634461      -48.7986705729        3.3261200000  MEMB      8               0.0000000000
       585         8  CHL1      C26           -48.7444567205      -49.1304837414        2.1266300000  MEMB      8               0.0000000000
       586         8  CHL1      H26A          -48.0646740301      -48.5420289230        2.7792600000  MEMB      8               0.0000000000
       587         8  CHL1      H26B          -48.2523885871      -50.0463718731        1.7350600000  MEMB      8               0.0000000000
       588         8  CHL1      H26C          -48.9775592969      -48.4132794379        1.3107900000  MEMB      8               0.0000000000
       589         8  CHL1      C27           -50.9388763374      -50.0337347617        1.6101900000  MEMB      8               0.0000000000
       590         8  CHL1      H27A          -50.5187640813      -50.9778880138        1.2022800000  MEMB      8               0.0000000000
       591         8  CHL1      H27B          -52.0042819943      -50.2447151171        1.8441100000  MEMB      8               0.0000000000
       592         8  CHL1      H27C          -50.8521896365      -49.2878183600        0.7914000000  MEMB      8               0.0000000000
       593         9  CHL1      C3             52.7189854488       29.4133351134       17.3429950000  MEMB      9               0.0000000000
       594         9  CHL1      H3             52.5167776289       28.3212873855       17.3723450000  MEMB      9               0.0000000000
       595         9  CHL1      O3             53.0463867512       29.6706800866       18.6570050000  MEMB      9               0.0000000000
       596         9  CHL1      H3'            52.2699066376       29.3256455532       19.1038050000  MEMB      9               0.0000000000
       597         9  CHL1      C4             53.9900627311       29.6555034558       16.5302150000  MEMB      9               0.0000000000
       598         9  CHL1      H4A            54.2279913288       30.7199252515       16.7416950000  MEMB      9               0.0000000000
       599         9  CHL1      H4B            54.8798716273       29.0478850424       16.8010450000  MEMB      9               0.0000000000
       600         9  CHL1      C5             53.7096441413       29.6055981807       15.0609950000  MEMB      9               0.0000000000
       601         9  CHL1      C6             54.4030916515       28.7725762081       14.2926850000  MEMB      9               0.0000000000
       602         9  CHL1      H6             55.1857815191       28.1062815115       14.6844250000  MEMB      9               0.0000000000
       603         9  CHL1      C7             54.0382669043       28.5572611050       12.8735950000  MEMB      9               0.0000000000
       604         9  CHL1      H7A            54.9445659132       28.3718827653       12.2583050000  MEMB      9               0.0000000000
       605         9  CHL1      H7B            53.3520949546       27.6839847146       12.8438150000  MEMB      9               0.0000000000
       606         9  CHL1      C8             53.3151076614       29.7961120794       12.2404850000  MEMB      9               0.0000000000
       607         9  CHL1      H8             54.0173544161       30.6488377730       12.1220450000  MEMB      9               0.0000000000
       608         9  CHL1      C14            52.7287953914       29.3240613433       10.9339050000  MEMB      9               0.0000000000
       609         9  CHL1      H14            52.0952370966       28.4401996694       11.1613250000  MEMB      9               0.0000000000
       610         9  CHL1      C15            53.6432928251       28.7289099831        9.8837650000  MEMB      9               0.0000000000
       611         9  CHL1      H15A           54.5761823625       29.2790217182        9.6359550000  MEMB      9               0.0000000000
       612         9  CHL1      H15B           54.0089302067       27.7264321007       10.1930650000  MEMB      9               0.0000000000
       613         9  CHL1      C16            52.7979447706       28.7263309842        8.5970450000  MEMB      9               0.0000000000
       614         9  CHL1      H16A           53.3329366676       29.1750050777        7.7328750000  MEMB      9               0.0000000000
       615         9  CHL1      H16B           52.4603507979       27.6803562866        8.4349150000  MEMB      9               0.0000000000
       616         9  CHL1      C17            51.4999690145       29.5075713532        8.9088750000  MEMB      9               0.0000000000
       617         9  CHL1      H17            50.7334786078       28.8076584931        9.3050450000  MEMB      9               0.0000000000
       618         9  CHL1      C13            51.8748404209       30.3428511020       10.1291650000  MEMB      9               0.0000000000
       619         9  CHL1      C18            52.6994559061       31.6042405630        9.7957250000  MEMB      9               0.0000000000
       620         9  CHL1      H18A           53.3548480219       31.3292232576        8.9418250000  MEMB      9               0.0000000000
       621         9  CHL1      H18B           51.9913815138       32.3611037224        9.3955850000  MEMB      9               0.0000000000
       622         9  CHL1      H18C           53.2465499027       32.0767304179       10.6393850000  MEMB      9               0.0000000000
       623         9  CHL1      C12            50.6815900783       30.6591059253       11.0650750000  MEMB      9               0.0000000000
       624         9  CHL1      H12A           50.0765024217       31.4578645111       10.5853250000  MEMB      9               0.0000000000
       625         9  CHL1      H12B           50.1055696573       29.7274603003       11.2510250000  MEMB      9               0.0000000000
       626         9  CHL1      C11            51.1466491910       31.1407263188       12.4485550000  MEMB      9               0.0000000000
       627         9  CHL1      H11A           51.5667084371       32.1682436957       12.4030450000  MEMB      9               0.0000000000
       628         9  CHL1      H11B           50.2910742399       31.2244132088       13.1523350000  MEMB      9               0.0000000000
       629         9  CHL1      C9             52.1184918557       30.1266986667       13.1177550000  MEMB      9               0.0000000000
       630         9  CHL1      H9             51.4625289574       29.2301646471       13.1338950000  MEMB      9               0.0000000000
       631         9  CHL1      C10            52.5342809379       30.4642782444       14.5500950000  MEMB      9               0.0000000000
       632         9  CHL1      C19            52.8952298558       31.9691944253       14.7733750000  MEMB      9               0.0000000000
       633         9  CHL1      H19A           53.8856183807       32.2489217339       14.3548150000  MEMB      9               0.0000000000
       634         9  CHL1      H19B           52.0395638364       32.5656267553       14.3907350000  MEMB      9               0.0000000000
       635         9  CHL1      H19C           52.8974796165       32.1791499756       15.8643550000  MEMB      9               0.0000000000
       636         9  CHL1      C1             51.3476029851       29.9392613509       15.3542150000  MEMB      9               0.0000000000
       637         9  CHL1      H1A            50.4361418781       30.5194919062       15.0955850000  MEMB      9               0.0000000000
       638         9  CHL1      H1B            51.0496711325       28.9035878976       15.0841250000  MEMB      9               0.0000000000
       639         9  CHL1      C2             51.5102924953       30.2076370275       16.8363850000  MEMB      9               0.0000000000
       640         9  CHL1      H2A            50.6732794228       29.8277819903       17.4604250000  MEMB      9               0.0000000000
       641         9  CHL1      H2B            51.6941949471       31.2889037767       17.0135150000  MEMB      9               0.0000000000
       642         9  CHL1      C20            50.9811208098       30.1952880247        7.6766050000  MEMB      9               0.0000000000
       643         9  CHL1      H20            51.7962710414       30.8361813630        7.2777250000  MEMB      9               0.0000000000
       644         9  CHL1      C21            49.8034682736       31.0760327718        7.8386750000  MEMB      9               0.0000000000
       645         9  CHL1      H21A           49.5967577191       31.5496058627        6.8551550000  MEMB      9               0.0000000000
       646         9  CHL1      H21B           50.0763243078       31.9597118126        8.4543050000  MEMB      9               0.0000000000
       647         9  CHL1      H21C           48.9219017766       30.5970665497        8.3159150000  MEMB      9               0.0000000000
       648         9  CHL1      C22            50.6578097811       29.1593609543        6.5930250000  MEMB      9               0.0000000000
       649         9  CHL1      H22A           51.0964516718       28.1630873315        6.8151850000  MEMB      9               0.0000000000
       650         9  CHL1      H22B           49.5508499195       29.0685131426        6.5664150000  MEMB      9               0.0000000000
       651         9  CHL1      C23            51.0442890491       29.5160533364        5.1404050000  MEMB      9               0.0000000000
       652         9  CHL1      H23A           50.6343439096       30.5141233645        4.8755950000  MEMB      9               0.0000000000
       653         9  CHL1      H23B           52.1265395697       29.6843155283        4.9540350000  MEMB      9               0.0000000000
       654         9  CHL1      C24            50.5502946572       28.4772101655        4.1560550000  MEMB      9               0.0000000000
       655         9  CHL1      H24A           51.0370998104       27.4813662584        4.2311250000  MEMB      9               0.0000000000
       656         9  CHL1      H24B           49.4722323128       28.3779856479        4.4055750000  MEMB      9               0.0000000000
       657         9  CHL1      C25            50.7276740454       28.9602483744        2.6796950000  MEMB      9               0.0000000000
       658         9  CHL1      H25            50.3174984934       29.9872461644        2.7862550000  MEMB      9               0.0000000000
       659         9  CHL1      C26            52.1848546645       28.9278380748        2.2065950000  MEMB      9               0.0000000000
       660         9  CHL1      H26A           52.2733078303       29.0092029557        1.1021150000  MEMB      9               0.0000000000
       661         9  CHL1      H26B           52.8533990025       29.7315342251        2.5826550000  MEMB      9               0.0000000000
       662         9  CHL1      H26C           52.6493303900       27.9579978359        2.4858850000  MEMB      9               0.0000000000
       663         9  CHL1      C27            49.8063344402       28.1166290401        1.6820850000  MEMB      9               0.0000000000
       664         9  CHL1      H27A           50.2524954552       27.1028744313        1.7690750000  MEMB      9               0.0000000000
       665         9  CHL1      H27B           48.7778837055       28.0862591831        2.1012350000  MEMB      9               0.0000000000
       666         9  CHL1      H27C           49.8173936572       28.5089313070        0.6427150000  MEMB      9               0.0000000000
       667        10  CHL1      C3             55.7101867681       12.7427674351       17.2708050000  MEMB      10              0.0000000000
       668        10  CHL1      H3             54.7123259446       12.3527602376       16.9767150000  MEMB      10              0.0000000000
       669        10  CHL1      O3             55.8800564319       12.6518817649       18.7291950000  MEMB      10              0.0000000000
       670        10  CHL1      H3'            55.2055554502       13.2248147427       19.1012150000  MEMB      10              0.0000000000
       671        10  CHL1      C4             56.8134170448       11.9266244167       16.5899250000  MEMB      10              0.0000000000
       672        10  CHL1      H4A            57.8098502446       12.3567905484       16.8273750000  MEMB      10              0.0000000000
       673        10  CHL1      H4B            56.7945505465       10.9020212631       17.0190750000  MEMB      10              0.0000000000
       674        10  CHL1      C5             56.5427811824       11.8899867992       15.0579750000  MEMB      10              0.0000000000
       675        10  CHL1      C6             56.2476580241       10.7156205210       14.4894050000  MEMB      10              0.0000000000
       676        10  CHL1      H6             56.1058357455        9.8255940669       15.1200650000  MEMB      10              0.0000000000
       677        10  CHL1      C7             55.9317410435       10.5725420033       13.0484650000  MEMB      10              0.0000000000
       678        10  CHL1      H7A            56.5064736445        9.7807226508       12.5221350000  MEMB      10              0.0000000000
       679        10  CHL1      H7B            54.8337523293       10.4091860341       13.0938950000  MEMB      10              0.0000000000
       680        10  CHL1      C8             56.1906333114       11.9141902766       12.2778150000  MEMB      10              0.0000000000
       681        10  CHL1      H8             57.2859801258       11.9917701933       12.1089150000  MEMB      10              0.0000000000
       682        10  CHL1      C14            55.5197583085       11.9963027784       10.8557550000  MEMB      10              0.0000000000
       683        10  CHL1      H14            54.4290901124       12.2005038912       10.9110850000  MEMB      10              0.0000000000
       684        10  CHL1      C15            55.5248790512       10.7108714161        9.9348850000  MEMB      10              0.0000000000
       685        10  CHL1      H15A           56.5684211078       10.3509923968       10.0607150000  MEMB      10              0.0000000000
       686        10  CHL1      H15B           54.9737653182        9.8095561744       10.2787450000  MEMB      10              0.0000000000
       687        10  CHL1      C16            55.2882295135       11.1610001858        8.5416950000  MEMB      10              0.0000000000
       688        10  CHL1      H16A           56.0952951150       10.7332440963        7.9092450000  MEMB      10              0.0000000000
       689        10  CHL1      H16B           54.3461954648       10.8422096052        8.0464550000  MEMB      10              0.0000000000
       690        10  CHL1      C17            55.2512636273       12.8027884218        8.6335250000  MEMB      10              0.0000000000
       691        10  CHL1      H17            54.1728725210       12.9853583172        8.8286150000  MEMB      10              0.0000000000
       692        10  CHL1      C13            56.0144793308       13.1361723801        9.9779450000  MEMB      10              0.0000000000
       693        10  CHL1      C18            57.5000273035       13.0394976127        9.7141050000  MEMB      10              0.0000000000
       694        10  CHL1      H18A           57.7111954262       12.0107844216        9.3514950000  MEMB      10              0.0000000000
       695        10  CHL1      H18B           57.8267437947       13.5862268768        8.8037950000  MEMB      10              0.0000000000
       696        10  CHL1      H18C           58.1595349239       13.2430556075       10.5846950000  MEMB      10              0.0000000000
       697        10  CHL1      C12            55.6957441267       14.4145535618       10.7187250000  MEMB      10              0.0000000000
       698        10  CHL1      H12A           55.8901765331       15.3300446002       10.1200850000  MEMB      10              0.0000000000
       699        10  CHL1      H12B           54.5932552784       14.4381840469       10.8539150000  MEMB      10              0.0000000000
       700        10  CHL1      C11            56.3137397350       14.4174017717       12.1540450000  MEMB      10              0.0000000000
       701        10  CHL1      H11A           57.4076324266       14.5401734446       12.0035350000  MEMB      10              0.0000000000
       702        10  CHL1      H11B           55.9614799433       15.3184149573       12.7003050000  MEMB      10              0.0000000000
       703        10  CHL1      C9             55.8919032542       13.2335183299       12.9861150000  MEMB      10              0.0000000000
       704        10  CHL1      H9             54.7834879912       13.2032145727       13.0555750000  MEMB      10              0.0000000000
       705        10  CHL1      C10            56.4795683247       13.3020215669       14.4341550000  MEMB      10              0.0000000000
       706        10  CHL1      C19            57.7778509347       14.0203042514       14.4183650000  MEMB      10              0.0000000000
       707        10  CHL1      H19A           58.3624887042       13.8156687588       15.3406650000  MEMB      10              0.0000000000
       708        10  CHL1      H19B           58.4968740855       13.6685124915       13.6479250000  MEMB      10              0.0000000000
       709        10  CHL1      H19C           57.5725825417       15.1102010359       14.3526750000  MEMB      10              0.0000000000
       710        10  CHL1      C1             55.5291707162       14.2788634777       15.2650150000  MEMB      10              0.0000000000
       711        10  CHL1      H1A            55.6523854215       15.3088042599       14.8670650000  MEMB      10              0.0000000000
       712        10  CHL1      H1B            54.4843127196       13.9237408072       15.1365950000  MEMB      10              0.0000000000
       713        10  CHL1      C2             55.7736520671       14.1629526317       16.8441750000  MEMB      10              0.0000000000
       714        10  CHL1      H2A            55.0133363924       14.6963099179       17.4539050000  MEMB      10              0.0000000000
       715        10  CHL1      H2B            56.8049721046       14.5211750057       17.0500350000  MEMB      10              0.0000000000
       716        10  CHL1      C20            55.6348740189       13.5179732818        7.3080950000  MEMB      10              0.0000000000
       717        10  CHL1      H20            56.6385160279       13.0785459073        7.1239150000  MEMB      10              0.0000000000
       718        10  CHL1      C21            55.8803012070       14.9813370024        7.2088850000  MEMB      10              0.0000000000
       719        10  CHL1      H21A           54.9847668576       15.6296916440        7.0994850000  MEMB      10              0.0000000000
       720        10  CHL1      H21B           56.4605982950       15.1748234692        6.2814450000  MEMB      10              0.0000000000
       721        10  CHL1      H21C           56.4809467066       15.3751571993        8.0564950000  MEMB      10              0.0000000000
       722        10  CHL1      C22            54.6823522305       12.9920560225        6.1205450000  MEMB      10              0.0000000000
       723        10  CHL1      H22A           54.7907741314       11.8873195427        6.0743650000  MEMB      10              0.0000000000
       724        10  CHL1      H22B           53.6308276723       13.2139949513        6.4022750000  MEMB      10              0.0000000000
       725        10  CHL1      C23            55.0014487176       13.5321105178        4.7240150000  MEMB      10              0.0000000000
       726        10  CHL1      H23A           54.7135360514       14.6032565102        4.7878550000  MEMB      10              0.0000000000
       727        10  CHL1      H23B           56.0694074858       13.4419022731        4.4313350000  MEMB      10              0.0000000000
       728        10  CHL1      C24            54.1049156588       12.8382663698        3.6784050000  MEMB      10              0.0000000000
       729        10  CHL1      H24A           54.4853834060       11.8214070230        3.4426950000  MEMB      10              0.0000000000
       730        10  CHL1      H24B           53.0700847713       12.8784605393        4.0806750000  MEMB      10              0.0000000000
       731        10  CHL1      C25            53.9748976948       13.6762973983        2.3273850000  MEMB      10              0.0000000000
       732        10  CHL1      H25            53.4152342649       14.5796730732        2.6514450000  MEMB      10              0.0000000000
       733        10  CHL1      C26            55.3966896517       14.0153837805        1.7545650000  MEMB      10              0.0000000000
       734        10  CHL1      H26A           55.8764661825       14.8374678536        2.3275550000  MEMB      10              0.0000000000
       735        10  CHL1      H26B           56.1027266092       13.1601788864        1.8214050000  MEMB      10              0.0000000000
       736        10  CHL1      H26C           55.2935387441       14.3017391449        0.6860750000  MEMB      10              0.0000000000
       737        10  CHL1      C27            53.2270780841       12.8031822932        1.2661950000  MEMB      10              0.0000000000
       738        10  CHL1      H27A           52.2033846694       12.5738459581        1.6319350000  MEMB      10              0.0000000000
       739        10  CHL1      H27B           53.0780182533       13.4177917540        0.3527550000  MEMB      10              0.0000000000
       740        10  CHL1      H27C           53.6261088419       11.8118736418        0.9622050000  MEMB      10              0.0000000000
       741        11  CHL1      C3             21.8978110524       30.5246760826       17.3230300000  MEMB      11              0.0000000000
       742        11  CHL1      H3             21.1625408312       31.1156945271       16.7361700000  MEMB      11              0.0000000000
       743        11  CHL1      O3             21.4312719476       30.5600207174       18.6769700000  MEMB      11              0.0000000000
       744        11  CHL1      H3'            21.5067596032       31.4883630648       18.9095400000  MEMB      11              0.0000000000
       745        11  CHL1      C4             21.9627341610       29.0474029907       16.8078500000  MEMB      11              0.0000000000
       746        11  CHL1      H4A            22.7405715255       28.4585499133       17.3394000000  MEMB      11              0.0000000000
       747        11  CHL1      H4B            20.9629893998       28.6301888853       17.0543500000  MEMB      11              0.0000000000
       748        11  CHL1      C5             22.1696744654       29.1517149623       15.2909000000  MEMB      11              0.0000000000
       749        11  CHL1      C6             21.2698476378       28.7260385981       14.3776200000  MEMB      11              0.0000000000
       750        11  CHL1      H6             20.3498016441       28.1978752478       14.6684200000  MEMB      11              0.0000000000
       751        11  CHL1      C7             21.4888099918       28.7276819265       12.8972300000  MEMB      11              0.0000000000
       752        11  CHL1      H7A            21.2444113308       27.7806340968       12.3702600000  MEMB      11              0.0000000000
       753        11  CHL1      H7B            20.7375307352       29.4400053886       12.4941400000  MEMB      11              0.0000000000
       754        11  CHL1      C8             22.9774237399       29.1941285149       12.4784600000  MEMB      11              0.0000000000
       755        11  CHL1      H8             23.6206866655       28.2996100116       12.6211800000  MEMB      11              0.0000000000
       756        11  CHL1      C14            22.8762915638       29.6317729650       11.0149700000  MEMB      11              0.0000000000
       757        11  CHL1      H14            22.0732436159       30.3924311383       10.9109400000  MEMB      11              0.0000000000
       758        11  CHL1      C15            22.5798976216       28.5305067553       10.0349300000  MEMB      11              0.0000000000
       759        11  CHL1      H15A           23.2515155980       27.6532378403       10.1517100000  MEMB      11              0.0000000000
       760        11  CHL1      H15B           21.4929534920       28.3274428924       10.1428100000  MEMB      11              0.0000000000
       761        11  CHL1      C16            22.8749395063       29.3396790059        8.7577300000  MEMB      11              0.0000000000
       762        11  CHL1      H16A           23.5106479211       28.6018819784        8.2230900000  MEMB      11              0.0000000000
       763        11  CHL1      H16B           21.9551814830       29.5818258539        8.1835000000  MEMB      11              0.0000000000
       764        11  CHL1      C17            23.6185595160       30.6826817303        9.1098600000  MEMB      11              0.0000000000
       765        11  CHL1      H17            22.8042441886       31.4384008591        9.0990500000  MEMB      11              0.0000000000
       766        11  CHL1      C13            24.1509543127       30.3914203739       10.5057500000  MEMB      11              0.0000000000
       767        11  CHL1      C18            25.3670602459       29.3092433188       10.4307500000  MEMB      11              0.0000000000
       768        11  CHL1      H18A           26.3716321393       29.7779616113       10.3568100000  MEMB      11              0.0000000000
       769        11  CHL1      H18B           25.3185472312       28.6061533438       11.2896100000  MEMB      11              0.0000000000
       770        11  CHL1      H18C           25.2710921290       28.6346614580        9.5532300000  MEMB      11              0.0000000000
       771        11  CHL1      C12            24.4460474909       31.5572575757       11.4171400000  MEMB      11              0.0000000000
       772        11  CHL1      H12A           25.2998424990       32.1441307829       11.0159600000  MEMB      11              0.0000000000
       773        11  CHL1      H12B           23.4812390972       32.1010559329       11.5051900000  MEMB      11              0.0000000000
       774        11  CHL1      C11            24.8059457365       30.9927847284       12.7831600000  MEMB      11              0.0000000000
       775        11  CHL1      H11A           25.6962302679       30.3338506668       12.6963600000  MEMB      11              0.0000000000
       776        11  CHL1      H11B           25.0509032379       31.8392700567       13.4597600000  MEMB      11              0.0000000000
       777        11  CHL1      C9             23.4633045846       30.3395880032       13.3778400000  MEMB      11              0.0000000000
       778        11  CHL1      H9             22.7520968937       31.1928846571       13.3579100000  MEMB      11              0.0000000000
       779        11  CHL1      C10            23.4919534581       29.9037061762       14.8936600000  MEMB      11              0.0000000000
       780        11  CHL1      C19            24.7285901503       28.9068449247       15.0999700000  MEMB      11              0.0000000000
       781        11  CHL1      H19A           24.4480849519       27.9105435311       14.6962100000  MEMB      11              0.0000000000
       782        11  CHL1      H19B           25.6139599101       29.3251252568       14.5751100000  MEMB      11              0.0000000000
       783        11  CHL1      H19C           24.9543022247       28.7495735349       16.1763700000  MEMB      11              0.0000000000
       784        11  CHL1      C1             23.7147773812       31.2617049844       15.7072100000  MEMB      11              0.0000000000
       785        11  CHL1      H1A            24.7741675136       31.5839439925       15.6167800000  MEMB      11              0.0000000000
       786        11  CHL1      H1B            23.0700801466       32.0283173918       15.2266000000  MEMB      11              0.0000000000
       787        11  CHL1      C2             23.2903219309       31.1942609306       17.2199800000  MEMB      11              0.0000000000
       788        11  CHL1      H2A            23.1239783906       32.2669548528       17.4565700000  MEMB      11              0.0000000000
       789        11  CHL1      H2B            24.0513695269       30.6976422712       17.8591200000  MEMB      11              0.0000000000
       790        11  CHL1      C20            24.6916398785       31.1171032437        8.0121900000  MEMB      11              0.0000000000
       791        11  CHL1      H20            25.4983311047       30.3533195267        8.0265100000  MEMB      11              0.0000000000
       792        11  CHL1      C21            25.4262968397       32.4647015268        8.2922600000  MEMB      11              0.0000000000
       793        11  CHL1      H21A           26.1783954077       32.3401052503        9.1004300000  MEMB      11              0.0000000000
       794        11  CHL1      H21B           24.6706037587       33.1654165155        8.7072900000  MEMB      11              0.0000000000
       795        11  CHL1      H21C           25.9497108056       32.9468588446        7.4391000000  MEMB      11              0.0000000000
       796        11  CHL1      C22            24.0635641119       31.0666952720        6.6065700000  MEMB      11              0.0000000000
       797        11  CHL1      H22A           24.8186981530       31.2961759799        5.8246300000  MEMB      11              0.0000000000
       798        11  CHL1      H22B           23.6880465866       30.0770044565        6.2691900000  MEMB      11              0.0000000000
       799        11  CHL1      C23            23.0467328856       32.3003842777        6.3497200000  MEMB      11              0.0000000000
       800        11  CHL1      H23A           22.1108449750       32.1511865145        6.9295200000  MEMB      11              0.0000000000
       801        11  CHL1      H23B           23.3931202072       33.3282542307        6.5901900000  MEMB      11              0.0000000000
       802        11  CHL1      C24            22.4216794241       32.1402223118        4.9033300000  MEMB      11              0.0000000000
       803        11  CHL1      H24A           23.2272204461       32.1426641691        4.1382100000  MEMB      11              0.0000000000
       804        11  CHL1      H24B           22.0173552953       31.1055582087        4.8858100000  MEMB      11              0.0000000000
       805        11  CHL1      C25            21.3183885192       33.1115388279        4.4697600000  MEMB      11              0.0000000000
       806        11  CHL1      H25            21.8626183097       34.0393276881        4.1916400000  MEMB      11              0.0000000000
       807        11  CHL1      C26            20.5976720590       32.6025655681        3.2196700000  MEMB      11              0.0000000000
       808        11  CHL1      H26A           20.4376644925       31.5066609932        3.3074700000  MEMB      11              0.0000000000
       809        11  CHL1      H26B           19.6304315735       33.1283525669        3.0702600000  MEMB      11              0.0000000000
       810        11  CHL1      H26C           21.3575855329       32.7147832535        2.4170200000  MEMB      11              0.0000000000
       811        11  CHL1      C27            20.3614811868       33.7267234109        5.5738000000  MEMB      11              0.0000000000
       812        11  CHL1      H27A           20.8441677921       34.0210581694        6.5302000000  MEMB      11              0.0000000000
       813        11  CHL1      H27B           19.8776647812       34.6153207196        5.1148500000  MEMB      11              0.0000000000
       814        11  CHL1      H27C           19.6497323414       32.9139290925        5.8328500000  MEMB      11              0.0000000000
       815        12  CHL1      C3             12.4228731001      -56.3767690361       17.2878600000  MEMB      12              0.0000000000
       816        12  CHL1      H3             11.9250505958      -55.4958856938       16.8290200000  MEMB      12              0.0000000000
       817        12  CHL1      O3             12.4143664999      -56.2277897639       18.7121400000  MEMB      12              0.0000000000
       818        12  CHL1      H3'            12.9328594085      -55.4287241211       18.8315500000  MEMB      12              0.0000000000
       819        12  CHL1      C4             11.7006796237      -57.5784150803       16.8149400000  MEMB      12              0.0000000000
       820        12  CHL1      H4A            12.2640835018      -58.3864980385       17.3286400000  MEMB      12              0.0000000000
       821        12  CHL1      H4B            10.7063196765      -57.6241854839       17.3083800000  MEMB      12              0.0000000000
       822        12  CHL1      C5             11.6628778551      -57.8474257241       15.3090500000  MEMB      12              0.0000000000
       823        12  CHL1      C6             10.4795548827      -58.0299600178       14.7617000000  MEMB      12              0.0000000000
       824        12  CHL1      H6              9.5554902172      -57.9397690211       15.3515800000  MEMB      12              0.0000000000
       825        12  CHL1      C7             10.3648491306      -58.3021331013       13.2833700000  MEMB      12              0.0000000000
       826        12  CHL1      H7A             9.7271648199      -59.1996240176       13.1343600000  MEMB      12              0.0000000000
       827        12  CHL1      H7B             9.7705056957      -57.4618361613       12.8650800000  MEMB      12              0.0000000000
       828        12  CHL1      C8             11.6801981686      -58.4579455948       12.5461500000  MEMB      12              0.0000000000
       829        12  CHL1      H8             11.9293330566      -59.5350606572       12.6560900000  MEMB      12              0.0000000000
       830        12  CHL1      C14            11.3948287158      -58.1927250689       11.0614000000  MEMB      12              0.0000000000
       831        12  CHL1      H14            11.2468836193      -57.0937552816       10.9929100000  MEMB      12              0.0000000000
       832        12  CHL1      C15            10.0880756138      -58.7893964916       10.4597600000  MEMB      12              0.0000000000
       833        12  CHL1      H15A            9.7874296745      -59.8096522672       10.7807300000  MEMB      12              0.0000000000
       834        12  CHL1      H15B            9.2564762765      -58.0903788049       10.6924500000  MEMB      12              0.0000000000
       835        12  CHL1      C16            10.3465350251      -58.7460511248        8.9421200000  MEMB      12              0.0000000000
       836        12  CHL1      H16A           10.3804484778      -59.8149560700        8.6411200000  MEMB      12              0.0000000000
       837        12  CHL1      H16B            9.4840312775      -58.2954021501        8.4061000000  MEMB      12              0.0000000000
       838        12  CHL1      C17            11.7155938139      -58.0834037430        8.7608900000  MEMB      12              0.0000000000
       839        12  CHL1      H17            11.6495128420      -56.9804987285        8.6444300000  MEMB      12              0.0000000000
       840        12  CHL1      C13            12.4801162900      -58.4107607227       10.0358200000  MEMB      12              0.0000000000
       841        12  CHL1      C18            12.8441878949      -59.9615297601        9.9160200000  MEMB      12              0.0000000000
       842        12  CHL1      H18A           13.4792930349      -60.2177888857        9.0412100000  MEMB      12              0.0000000000
       843        12  CHL1      H18B           13.4357818362      -60.2358115820       10.8155200000  MEMB      12              0.0000000000
       844        12  CHL1      H18C           11.9302159476      -60.5931253077        9.9080900000  MEMB      12              0.0000000000
       845        12  CHL1      C12            13.7178968510      -57.6411074503       10.5762400000  MEMB      12              0.0000000000
       846        12  CHL1      H12A           14.6366488640      -57.8276958170        9.9800900000  MEMB      12              0.0000000000
       847        12  CHL1      H12B           13.5634019378      -56.5864454186       10.2629600000  MEMB      12              0.0000000000
       848        12  CHL1      C11            13.9896464011      -57.8202542128       12.0427800000  MEMB      12              0.0000000000
       849        12  CHL1      H11A           14.5098828287      -58.7831304849       12.2339700000  MEMB      12              0.0000000000
       850        12  CHL1      H11B           14.7488416566      -57.0735659527       12.3596600000  MEMB      12              0.0000000000
       851        12  CHL1      C9             12.7999067360      -57.4859643618       12.9945600000  MEMB      12              0.0000000000
       852        12  CHL1      H9             12.5403667014      -56.4211759788       12.8123800000  MEMB      12              0.0000000000
       853        12  CHL1      C10            13.0146434108      -57.7552440336       14.5007200000  MEMB      12              0.0000000000
       854        12  CHL1      C19            13.8029125597      -59.0650253255       14.8377300000  MEMB      12              0.0000000000
       855        12  CHL1      H19A           14.1907917664      -58.9706209640       15.8745300000  MEMB      12              0.0000000000
       856        12  CHL1      H19B           13.1104132340      -59.9291340995       14.7478900000  MEMB      12              0.0000000000
       857        12  CHL1      H19C           14.7819096364      -59.1462964172       14.3188000000  MEMB      12              0.0000000000
       858        12  CHL1      C1             13.6883496364      -56.4729597882       15.0903600000  MEMB      12              0.0000000000
       859        12  CHL1      H1A            14.7247962543      -56.4702637326       14.6902400000  MEMB      12              0.0000000000
       860        12  CHL1      H1B            13.1697184225      -55.5298633186       14.8148500000  MEMB      12              0.0000000000
       861        12  CHL1      C2             13.8257563674      -56.3346174683       16.6867600000  MEMB      12              0.0000000000
       862        12  CHL1      H2A            14.2970262531      -55.3652178928       16.9559800000  MEMB      12              0.0000000000
       863        12  CHL1      H2B            14.4984147692      -57.1202452902       17.0925300000  MEMB      12              0.0000000000
       864        12  CHL1      C20            12.3079337672      -58.4122211493        7.3507100000  MEMB      12              0.0000000000
       865        12  CHL1      H20            12.4921874844      -59.5046899011        7.2677500000  MEMB      12              0.0000000000
       866        12  CHL1      C21            13.6792940454      -57.6919261201        7.1931100000  MEMB      12              0.0000000000
       867        12  CHL1      H21A           14.4431124243      -58.1800792563        7.8354500000  MEMB      12              0.0000000000
       868        12  CHL1      H21B           13.6439273405      -56.6651421454        7.6159300000  MEMB      12              0.0000000000
       869        12  CHL1      H21C           13.9653181978      -57.6972008442        6.1195700000  MEMB      12              0.0000000000
       870        12  CHL1      C22            11.3560277207      -58.1492128444        6.1627900000  MEMB      12              0.0000000000
       871        12  CHL1      H22A           10.2809594820      -58.1823982769        6.4410700000  MEMB      12              0.0000000000
       872        12  CHL1      H22B           11.3955790489      -57.1043227458        5.7873600000  MEMB      12              0.0000000000
       873        12  CHL1      C23            11.6714639215      -59.0854733774        4.9872900000  MEMB      12              0.0000000000
       874        12  CHL1      H23A           12.7337087001      -58.9797414014        4.6794600000  MEMB      12              0.0000000000
       875        12  CHL1      H23B           11.5919188792      -60.1347894484        5.3435700000  MEMB      12              0.0000000000
       876        12  CHL1      C24            10.7003294561      -58.7687817976        3.8575400000  MEMB      12              0.0000000000
       877        12  CHL1      H24A            9.6860018328      -59.0001083703        4.2473500000  MEMB      12              0.0000000000
       878        12  CHL1      H24B           10.6144865059      -57.7119757367        3.5257100000  MEMB      12              0.0000000000
       879        12  CHL1      C25            11.0263596935      -59.6072048630        2.6606000000  MEMB      12              0.0000000000
       880        12  CHL1      H25            11.3301931978      -60.6163793346        3.0121400000  MEMB      12              0.0000000000
       881        12  CHL1      C26             9.7334432648      -59.7814287209        1.7811300000  MEMB      12              0.0000000000
       882        12  CHL1      H26A            9.3702371429      -58.8041206261        1.3973600000  MEMB      12              0.0000000000
       883        12  CHL1      H26B           10.0580128091      -60.4218700387        0.9333000000  MEMB      12              0.0000000000
       884        12  CHL1      H26C            8.9215206772      -60.2717823817        2.3596200000  MEMB      12              0.0000000000
       885        12  CHL1      C27            12.0859821577      -58.9997338074        1.8340300000  MEMB      12              0.0000000000
       886        12  CHL1      H27A           11.9009298546      -57.9264259496        1.6147300000  MEMB      12              0.0000000000
       887        12  CHL1      H27B           13.0233827735      -59.0643251375        2.4268300000  MEMB      12              0.0000000000
       888        12  CHL1      H27C           12.1680369765      -59.5654181741        0.8813600000  MEMB      12              0.0000000000
       889        13  CHL1      C3              9.7466873578       46.7638002156       17.3678900000  MEMB      13              0.0000000000
       890        13  CHL1      H3              9.9143851051       45.6687770467       17.4523500000  MEMB      13              0.0000000000
       891        13  CHL1      O3              9.5018775822       47.3076877844       18.6321100000  MEMB      13              0.0000000000
       892        13  CHL1      H3'             9.5898301886       46.6096844490       19.2853000000  MEMB      13              0.0000000000
       893        13  CHL1      C4             10.8752570400       47.5223920904       16.7538900000  MEMB      13              0.0000000000
       894        13  CHL1      H4A            10.6730313103       48.5872061922       16.9980200000  MEMB      13              0.0000000000
       895        13  CHL1      H4B            11.8184473024       47.2031997953       17.2466700000  MEMB      13              0.0000000000
       896        13  CHL1      C5             11.1498387020       47.2692334767       15.2368900000  MEMB      13              0.0000000000
       897        13  CHL1      C6             12.3474225707       46.8936295312       14.7469800000  MEMB      13              0.0000000000
       898        13  CHL1      H6             13.2269676087       46.8453679947       15.4058300000  MEMB      13              0.0000000000
       899        13  CHL1      C7             12.5726871594       46.7351576789       13.2920200000  MEMB      13              0.0000000000
       900        13  CHL1      H7A            13.4874864303       47.3061060693       13.0246700000  MEMB      13              0.0000000000
       901        13  CHL1      H7B            12.7790120935       45.6638330531       13.0822400000  MEMB      13              0.0000000000
       902        13  CHL1      C8             11.3895939316       47.4300733250       12.4546100000  MEMB      13              0.0000000000
       903        13  CHL1      H8             11.5436694796       48.5157861089       12.6329700000  MEMB      13              0.0000000000
       904        13  CHL1      C14            11.5392643806       47.1281750715       11.0002200000  MEMB      13              0.0000000000
       905        13  CHL1      H14            11.1657448666       46.0855271351       10.9125100000  MEMB      13              0.0000000000
       906        13  CHL1      C15            12.9086683043       47.3201833662       10.1763100000  MEMB      13              0.0000000000
       907        13  CHL1      H15A           13.3806010073       48.2654451293       10.5199600000  MEMB      13              0.0000000000
       908        13  CHL1      H15B           13.5829541813       46.4416534771       10.2647800000  MEMB      13              0.0000000000
       909        13  CHL1      C16            12.4133620413       47.6085117357        8.6530500000  MEMB      13              0.0000000000
       910        13  CHL1      H16A           12.7660652444       48.6099502835        8.3258900000  MEMB      13              0.0000000000
       911        13  CHL1      H16B           12.8407258694       46.9298814000        7.8841900000  MEMB      13              0.0000000000
       912        13  CHL1      C17            10.8751986071       47.2213184564        8.7094400000  MEMB      13              0.0000000000
       913        13  CHL1      H17            10.7409714602       46.1217807722        8.7951400000  MEMB      13              0.0000000000
       914        13  CHL1      C13            10.4632833006       47.7864430668       10.1146400000  MEMB      13              0.0000000000
       915        13  CHL1      C18            10.7089115790       49.3764493519       10.1728200000  MEMB      13              0.0000000000
       916        13  CHL1      H18A            9.9484234802       49.8223365665        9.4966800000  MEMB      13              0.0000000000
       917        13  CHL1      H18B           10.5859737553       49.7889079371       11.1970700000  MEMB      13              0.0000000000
       918        13  CHL1      H18C           11.7136787902       49.7048753563        9.8309200000  MEMB      13              0.0000000000
       919        13  CHL1      C12             9.0385620192       47.3541747331       10.5620900000  MEMB      13              0.0000000000
       920        13  CHL1      H12A            8.1973363332       47.8774005649       10.0591900000  MEMB      13              0.0000000000
       921        13  CHL1      H12B            8.9699227460       46.2573608390       10.3989100000  MEMB      13              0.0000000000
       922        13  CHL1      C11             8.8286512447       47.7036987370       12.0728700000  MEMB      13              0.0000000000
       923        13  CHL1      H11A            8.8132257417       48.8142091780       12.1017200000  MEMB      13              0.0000000000
       924        13  CHL1      H11B            7.8927448075       47.3000968468       12.5150300000  MEMB      13              0.0000000000
       925        13  CHL1      C9             10.0129342712       47.0062295680       12.9622900000  MEMB      13              0.0000000000
       926        13  CHL1      H9              9.9315906592       45.9003109565       12.8942100000  MEMB      13              0.0000000000
       927        13  CHL1      C10             9.8954770710       47.4209617330       14.4449600000  MEMB      13              0.0000000000
       928        13  CHL1      C19             9.4913356104       48.9492412840       14.5049100000  MEMB      13              0.0000000000
       929        13  CHL1      H19A           10.1639768773       49.6220896192       13.9311900000  MEMB      13              0.0000000000
       930        13  CHL1      H19B            8.4988236761       49.1430967534       14.0448500000  MEMB      13              0.0000000000
       931        13  CHL1      H19C            9.3825886004       49.3778403589       15.5241300000  MEMB      13              0.0000000000
       932        13  CHL1      C1              8.7545860872       46.6027931586       15.1972100000  MEMB      13              0.0000000000
       933        13  CHL1      H1A             7.8185984083       46.7664290756       14.6214700000  MEMB      13              0.0000000000
       934        13  CHL1      H1B             9.0489488319       45.5465996931       15.0179900000  MEMB      13              0.0000000000
       935        13  CHL1      C2              8.4454276527       46.9126584121       16.6023600000  MEMB      13              0.0000000000
       936        13  CHL1      H2A             7.7074285225       46.1979410597       17.0252800000  MEMB      13              0.0000000000
       937        13  CHL1      H2B             8.0407581426       47.9356219288       16.7577000000  MEMB      13              0.0000000000
       938        13  CHL1      C20            10.0804743493       47.7800224247        7.4819500000  MEMB      13              0.0000000000
       939        13  CHL1      H20            10.0286545314       48.8864400866        7.5684300000  MEMB      13              0.0000000000
       940        13  CHL1      C21             8.5772952679       47.3551011246        7.4048300000  MEMB      13              0.0000000000
       941        13  CHL1      H21A            7.8954729712       47.9087310033        8.0852300000  MEMB      13              0.0000000000
       942        13  CHL1      H21B            8.4728512177       46.2908510763        7.7061100000  MEMB      13              0.0000000000
       943        13  CHL1      H21C            8.2331531281       47.4451595926        6.3523200000  MEMB      13              0.0000000000
       944        13  CHL1      C22            10.7959006720       47.3858222582        6.1757200000  MEMB      13              0.0000000000
       945        13  CHL1      H22A           10.1539285485       47.7453361504        5.3432900000  MEMB      13              0.0000000000
       946        13  CHL1      H22B           11.7895810893       47.8401203063        5.9743600000  MEMB      13              0.0000000000
       947        13  CHL1      C23            11.0809771361       45.9341676053        5.8362400000  MEMB      13              0.0000000000
       948        13  CHL1      H23A           11.9358567494       45.5827476427        6.4526800000  MEMB      13              0.0000000000
       949        13  CHL1      H23B           10.2273144368       45.2593839642        6.0604300000  MEMB      13              0.0000000000
       950        13  CHL1      C24            11.4487845494       45.6854692489        4.3158300000  MEMB      13              0.0000000000
       951        13  CHL1      H24A           12.0987709696       46.5141850301        3.9621900000  MEMB      13              0.0000000000
       952        13  CHL1      H24B           12.0013277937       44.7267285601        4.2166200000  MEMB      13              0.0000000000
       953        13  CHL1      C25            10.2950538436       45.6254460608        3.2306100000  MEMB      13              0.0000000000
       954        13  CHL1      H25             9.7666109955       46.5864276214        3.4083500000  MEMB      13              0.0000000000
       955        13  CHL1      C26            10.8278122335       45.5800824537        1.8016700000  MEMB      13              0.0000000000
       956        13  CHL1      H26A           10.0176823567       45.5001891043        1.0456100000  MEMB      13              0.0000000000
       957        13  CHL1      H26B           11.4363709542       46.4745057248        1.5487300000  MEMB      13              0.0000000000
       958        13  CHL1      H26C           11.4676457627       44.6745567014        1.7311700000  MEMB      13              0.0000000000
       959        13  CHL1      C27             9.2757445470       44.5127578743        3.4070500000  MEMB      13              0.0000000000
       960        13  CHL1      H27A            9.6488534496       43.5545390413        2.9864300000  MEMB      13              0.0000000000
       961        13  CHL1      H27B            9.0706913293       44.2545952674        4.4680100000  MEMB      13              0.0000000000
       962        13  CHL1      H27C            8.2595285466       44.6781395971        2.9895900000  MEMB      13              0.0000000000
       963        14  CHL1      C3             54.2453848863       52.1235186033       17.3072000000  MEMB      14              0.0000000000
       964        14  CHL1      H3             53.2244194562       52.4512802161       17.0164600000  MEMB      14              0.0000000000
       965        14  CHL1      O3             54.4970673137       52.2112715967       18.6928000000  MEMB      14              0.0000000000
       966        14  CHL1      H3'            54.0782305248       53.0408721565       18.9335500000  MEMB      14              0.0000000000
       967        14  CHL1      C4             54.4573159112       50.6516652891       16.8885900000  MEMB      14              0.0000000000
       968        14  CHL1      H4A            55.4450741000       50.3869413471       17.3228300000  MEMB      14              0.0000000000
       969        14  CHL1      H4B            53.7520537922       50.0202309400       17.4701600000  MEMB      14              0.0000000000
       970        14  CHL1      C5             54.4263378735       50.4712223849       15.3690500000  MEMB      14              0.0000000000
       971        14  CHL1      C6             53.5471772091       49.7103109521       14.7399300000  MEMB      14              0.0000000000
       972        14  CHL1      H6             52.7801425310       49.1715778728       15.3156200000  MEMB      14              0.0000000000
       973        14  CHL1      C7             53.4007290689       49.5527891176       13.2523800000  MEMB      14              0.0000000000
       974        14  CHL1      H7A            53.3081347779       48.4930590889       12.9319000000  MEMB      14              0.0000000000
       975        14  CHL1      H7B            52.5839934498       50.2252169653       12.9131100000  MEMB      14              0.0000000000
       976        14  CHL1      C8             54.6160609368       50.1120411365       12.4470500000  MEMB      14              0.0000000000
       977        14  CHL1      H8             55.4063924146       49.3507950214       12.6208800000  MEMB      14              0.0000000000
       978        14  CHL1      C14            54.2023189801       50.3431058958       11.0002200000  MEMB      14              0.0000000000
       979        14  CHL1      H14            53.5006364847       51.2039242521       10.9691100000  MEMB      14              0.0000000000
       980        14  CHL1      C15            53.4984177685       49.2690451597       10.1530300000  MEMB      14              0.0000000000
       981        14  CHL1      H15A           54.0236302183       48.2912888819       10.2027000000  MEMB      14              0.0000000000
       982        14  CHL1      H15B           52.4273532484       49.1738036589       10.4324600000  MEMB      14              0.0000000000
       983        14  CHL1      C16            53.6158920079       49.8337928007        8.7240500000  MEMB      14              0.0000000000
       984        14  CHL1      H16A           53.9279528403       48.9509242804        8.1261500000  MEMB      14              0.0000000000
       985        14  CHL1      H16B           52.6677790414       50.2901658556        8.3674900000  MEMB      14              0.0000000000
       986        14  CHL1      C17            54.6335064338       51.0303435705        8.8321400000  MEMB      14              0.0000000000
       987        14  CHL1      H17            54.0247633319       51.9445607473        8.9993800000  MEMB      14              0.0000000000
       988        14  CHL1      C13            55.3305833378       50.8230985104       10.1906700000  MEMB      14              0.0000000000
       989        14  CHL1      C18            56.3383792265       49.6724167236       10.0352300000  MEMB      14              0.0000000000
       990        14  CHL1      H18A           56.0105571700       48.8600196287        9.3519500000  MEMB      14              0.0000000000
       991        14  CHL1      H18B           57.2605096340       50.0325791392        9.5309900000  MEMB      14              0.0000000000
       992        14  CHL1      H18C           56.8288037101       49.2811656896       10.9521400000  MEMB      14              0.0000000000
       993        14  CHL1      C12            55.8113721947       52.2112126497       10.7626500000  MEMB      14              0.0000000000
       994        14  CHL1      H12A           56.6899013151       52.4603422942       10.1298400000  MEMB      14              0.0000000000
       995        14  CHL1      H12B           55.0189091657       52.9829375762       10.6588100000  MEMB      14              0.0000000000
       996        14  CHL1      C11            56.2245662860       52.0078922293       12.2173100000  MEMB      14              0.0000000000
       997        14  CHL1      H11A           57.2297404108       51.5360653491       12.2536800000  MEMB      14              0.0000000000
       998        14  CHL1      H11B           56.3809369085       53.0098798710       12.6710500000  MEMB      14              0.0000000000
       999        14  CHL1      C9             55.1317688073       51.4096061195       13.1220900000  MEMB      14              0.0000000000
      1000        14  CHL1      H9             54.2902842902       52.1270967073       13.0152300000  MEMB      14              0.0000000000
      1001        14  CHL1      C10            55.4420141211       51.3924001759       14.6353700000  MEMB      14              0.0000000000
      1002        14  CHL1      C19            56.9205630451       50.8510871049       14.9143000000  MEMB      14              0.0000000000
      1003        14  CHL1      H19A           56.9684576557       49.8515017677       14.4317500000  MEMB      14              0.0000000000
      1004        14  CHL1      H19B           57.7082792982       51.4916626726       14.4632100000  MEMB      14              0.0000000000
      1005        14  CHL1      H19C           57.1168463025       50.7993926169       16.0066000000  MEMB      14              0.0000000000
      1006        14  CHL1      C1             55.1137433236       52.8235474730       15.0941700000  MEMB      14              0.0000000000
      1007        14  CHL1      H1A            55.8163806858       53.4906457711       14.5504700000  MEMB      14              0.0000000000
      1008        14  CHL1      H1B            54.0788911309       53.0904420354       14.7905900000  MEMB      14              0.0000000000
      1009        14  CHL1      C2             55.2310079627       53.1097995533       16.5607200000  MEMB      14              0.0000000000
      1010        14  CHL1      H2A            55.1876536169       54.1814424716       16.8506200000  MEMB      14              0.0000000000
      1011        14  CHL1      H2B            56.2964122096       52.8398943123       16.7231900000  MEMB      14              0.0000000000
      1012        14  CHL1      C20            55.4574198855       51.3550261258        7.4923000000  MEMB      14              0.0000000000
      1013        14  CHL1      H20            56.1189010332       50.4929646104        7.2607600000  MEMB      14              0.0000000000
      1014        14  CHL1      C21            56.2953247045       52.6039297965        7.6251100000  MEMB      14              0.0000000000
      1015        14  CHL1      H21A           56.5635623968       52.9629509203        6.6085200000  MEMB      14              0.0000000000
      1016        14  CHL1      H21B           57.3258762357       52.4538334726        8.0121100000  MEMB      14              0.0000000000
      1017        14  CHL1      H21C           55.7845912186       53.4126038883        8.1903600000  MEMB      14              0.0000000000
      1018        14  CHL1      C22            54.5363620692       51.4708635983        6.3217700000  MEMB      14              0.0000000000
      1019        14  CHL1      H22A           53.8358371598       50.6089272877        6.2961100000  MEMB      14              0.0000000000
      1020        14  CHL1      H22B           53.9018894364       52.3817575632        6.3666800000  MEMB      14              0.0000000000
      1021        14  CHL1      C23            55.2906528640       51.4250138781        5.0144500000  MEMB      14              0.0000000000
      1022        14  CHL1      H23A           55.6005008165       52.4696359621        4.7975000000  MEMB      14              0.0000000000
      1023        14  CHL1      H23B           56.2355340399       50.8513516027        5.1260200000  MEMB      14              0.0000000000
      1024        14  CHL1      C24            54.5025812869       50.7390748554        3.9341000000  MEMB      14              0.0000000000
      1025        14  CHL1      H24A           54.2767309193       49.7056393406        4.2736700000  MEMB      14              0.0000000000
      1026        14  CHL1      H24B           53.5102084374       51.1776314808        3.6949500000  MEMB      14              0.0000000000
      1027        14  CHL1      C25            55.2150296040       50.7931877999        2.5790100000  MEMB      14              0.0000000000
      1028        14  CHL1      H25            56.2891178238       50.5344619693        2.6962000000  MEMB      14              0.0000000000
      1029        14  CHL1      C26            54.5589180247       49.7949306174        1.5445500000  MEMB      14              0.0000000000
      1030        14  CHL1      H26A           54.6263633955       48.7856702465        2.0040700000  MEMB      14              0.0000000000
      1031        14  CHL1      H26B           53.5058845812       50.0617791568        1.3116900000  MEMB      14              0.0000000000
      1032        14  CHL1      H26C           55.1827282445       49.8108774644        0.6253500000  MEMB      14              0.0000000000
      1033        14  CHL1      C27            54.9173550129       52.1757223872        2.0053700000  MEMB      14              0.0000000000
      1034        14  CHL1      H27A           55.3512797337       52.9606733597        2.6610300000  MEMB      14              0.0000000000
      1035        14  CHL1      H27B           55.3400976217       52.1424910041        0.9784800000  MEMB      14              0.0000000000
      1036        14  CHL1      H27C           53.8226807232       52.3339007116        1.9005200000  MEMB      14              0.0000000000
      1037        15  CHL1      C3             51.0550553831      -10.1725235977       17.3089800000  MEMB      15              0.0000000000
      1038        15  CHL1      H3             52.0099386182      -10.7333057097       17.2193200000  MEMB      15              0.0000000000
      1039        15  CHL1      O3             50.7492810169       -9.9033840023       18.6910200000  MEMB      15              0.0000000000
      1040        15  CHL1      H3'            49.9947709346      -10.4527518033       18.9157800000  MEMB      15              0.0000000000
      1041        15  CHL1      C4             51.1783727939       -8.8392596262       16.5057100000  MEMB      15              0.0000000000
      1042        15  CHL1      H4A            50.3024430472       -8.1986554798       16.7438100000  MEMB      15              0.0000000000
      1043        15  CHL1      H4B            52.0247476877       -8.3160463067       16.9999000000  MEMB      15              0.0000000000
      1044        15  CHL1      C5             51.5387804436       -9.0728959071       15.0705900000  MEMB      15              0.0000000000
      1045        15  CHL1      C6             52.6387318480       -8.5705266576       14.4846700000  MEMB      15              0.0000000000
      1046        15  CHL1      H6             53.3992525138       -7.9540178610       14.9862000000  MEMB      15              0.0000000000
      1047        15  CHL1      C7             52.8832792975       -8.6862786422       13.0100400000  MEMB      15              0.0000000000
      1048        15  CHL1      H7A            53.2609547081       -7.7291612858       12.5909900000  MEMB      15              0.0000000000
      1049        15  CHL1      H7B            53.6102061369       -9.5087453194       12.8384400000  MEMB      15              0.0000000000
      1050        15  CHL1      C8             51.5697184473       -9.0665133038       12.2249700000  MEMB      15              0.0000000000
      1051        15  CHL1      H8             50.8853349569       -8.1931640798       12.2815700000  MEMB      15              0.0000000000
      1052        15  CHL1      C14            51.8625780864       -9.4166845716       10.7947700000  MEMB      15              0.0000000000
      1053        15  CHL1      H14            52.5716309650      -10.2718274974       10.8118400000  MEMB      15              0.0000000000
      1054        15  CHL1      C15            52.6161935400       -8.3617525597        9.9366300000  MEMB      15              0.0000000000
      1055        15  CHL1      H15A           52.2470806978       -7.3384483472       10.1622900000  MEMB      15              0.0000000000
      1056        15  CHL1      H15B           53.6651691748       -8.2385960261       10.2813200000  MEMB      15              0.0000000000
      1057        15  CHL1      C16            52.2753046396       -8.7591378255        8.5024300000  MEMB      15              0.0000000000
      1058        15  CHL1      H16A           51.6388533630       -7.9098810769        8.1737600000  MEMB      15              0.0000000000
      1059        15  CHL1      H16B           53.1821988805       -8.9718090871        7.8969200000  MEMB      15              0.0000000000
      1060        15  CHL1      C17            51.3610576484      -10.0135217104        8.6186400000  MEMB      15              0.0000000000
      1061        15  CHL1      H17            52.0462905186      -10.8754223950        8.7666400000  MEMB      15              0.0000000000
      1062        15  CHL1      C13            50.6414814720       -9.8562007911        9.9460500000  MEMB      15              0.0000000000
      1063        15  CHL1      C18            49.6160890471       -8.7147592555        9.9113400000  MEMB      15              0.0000000000
      1064        15  CHL1      H18A           49.1550247827       -8.4714163834       10.8924300000  MEMB      15              0.0000000000
      1065        15  CHL1      H18B           50.2241610107       -7.8496605606        9.5704900000  MEMB      15              0.0000000000
      1066        15  CHL1      H18C           48.8567425368       -8.9445708633        9.1336000000  MEMB      15              0.0000000000
      1067        15  CHL1      C12            50.0662405466      -11.1218085175       10.5704000000  MEMB      15              0.0000000000
      1068        15  CHL1      H12A           49.1510077503      -11.5041608280       10.0699100000  MEMB      15              0.0000000000
      1069        15  CHL1      H12B           50.7785870542      -11.9727829414       10.6225700000  MEMB      15              0.0000000000
      1070        15  CHL1      C11            49.6693518994      -10.8660088135       12.0843000000  MEMB      15              0.0000000000
      1071        15  CHL1      H11A           48.8217224368      -10.1515315657       12.0111800000  MEMB      15              0.0000000000
      1072        15  CHL1      H11B           49.3470983509      -11.8541171720       12.4768800000  MEMB      15              0.0000000000
      1073        15  CHL1      C9             50.8246734137      -10.2660640296       12.9099000000  MEMB      15              0.0000000000
      1074        15  CHL1      H9             51.5779787543      -11.0815617274       12.9526100000  MEMB      15              0.0000000000
      1075        15  CHL1      C10            50.4665331481       -9.9713271220       14.3487700000  MEMB      15              0.0000000000
      1076        15  CHL1      C19            49.1923846351       -9.0959193233       14.3325800000  MEMB      15              0.0000000000
      1077        15  CHL1      H19A           48.2864196503       -9.5150669470       13.8448700000  MEMB      15              0.0000000000
      1078        15  CHL1      H19B           48.8515174664       -8.7092103270       15.3167500000  MEMB      15              0.0000000000
      1079        15  CHL1      H19C           49.2022320602       -8.1702241633       13.7183300000  MEMB      15              0.0000000000
      1080        15  CHL1      C1             50.1228836547      -11.2292075287       15.1544000000  MEMB      15              0.0000000000
      1081        15  CHL1      H1A            49.1765819566      -11.7234974550       14.8469800000  MEMB      15              0.0000000000
      1082        15  CHL1      H1B            51.0320951854      -11.8587280406       15.0477200000  MEMB      15              0.0000000000
      1083        15  CHL1      C2             49.8995599907      -10.9538523244       16.6678000000  MEMB      15              0.0000000000
      1084        15  CHL1      H2A            49.8019143746      -11.8907175725       17.2569300000  MEMB      15              0.0000000000
      1085        15  CHL1      H2B            48.9337523935      -10.4624256333       16.9127900000  MEMB      15              0.0000000000
      1086        15  CHL1      C20            50.4575545569      -10.1452373825        7.3526700000  MEMB      15              0.0000000000
      1087        15  CHL1      H20            49.8915962017       -9.1918622045        7.2814100000  MEMB      15              0.0000000000
      1088        15  CHL1      C21            49.4146297806      -11.2821872122        7.4353700000  MEMB      15              0.0000000000
      1089        15  CHL1      H21A           49.7841274471      -12.2360799817        7.8688100000  MEMB      15              0.0000000000
      1090        15  CHL1      H21B           48.9493852727      -11.5520289035        6.4632300000  MEMB      15              0.0000000000
      1091        15  CHL1      H21C           48.6137114671      -10.9509515777        8.1304400000  MEMB      15              0.0000000000
      1092        15  CHL1      C22            51.2873850824      -10.2201888349        6.0350400000  MEMB      15              0.0000000000
      1093        15  CHL1      H22A           52.0382965986       -9.4039299618        6.0996800000  MEMB      15              0.0000000000
      1094        15  CHL1      H22B           51.9147036806      -11.1361980890        5.9936900000  MEMB      15              0.0000000000
      1095        15  CHL1      C23            50.4528829575       -9.9817355943        4.6831800000  MEMB      15              0.0000000000
      1096        15  CHL1      H23A           49.6634516907      -10.7624633412        4.6432900000  MEMB      15              0.0000000000
      1097        15  CHL1      H23B           49.7475466509       -9.1355507091        4.8273200000  MEMB      15              0.0000000000
      1098        15  CHL1      C24            51.4309537224       -9.9201989595        3.4829800000  MEMB      15              0.0000000000
      1099        15  CHL1      H24A           52.4726634323       -9.6624451836        3.7706000000  MEMB      15              0.0000000000
      1100        15  CHL1      H24B           51.5411218220      -10.9396807172        3.0553700000  MEMB      15              0.0000000000
      1101        15  CHL1      C25            51.0499573282       -8.9716626124        2.4119900000  MEMB      15              0.0000000000
      1102        15  CHL1      H25            50.0668074192       -9.3504875716        2.0595400000  MEMB      15              0.0000000000
      1103        15  CHL1      C26            50.9155524712       -7.5309058912        2.7440100000  MEMB      15              0.0000000000
      1104        15  CHL1      H26A           50.7502286218       -6.9568261670        1.8073100000  MEMB      15              0.0000000000
      1105        15  CHL1      H26B           50.0869648086       -7.3243847087        3.4547200000  MEMB      15              0.0000000000
      1106        15  CHL1      H26C           51.8480723511       -7.1580752843        3.2191200000  MEMB      15              0.0000000000
      1107        15  CHL1      C27            52.1374039111       -8.9942751930        1.3619100000  MEMB      15              0.0000000000
      1108        15  CHL1      H27A           52.3421358539      -10.0615288888        1.1308500000  MEMB      15              0.0000000000
      1109        15  CHL1      H27B           51.7017713462       -8.4036463051        0.5278300000  MEMB      15              0.0000000000
      1110        15  CHL1      H27C           53.0398019457       -8.4717147797        1.7452400000  MEMB      15              0.0000000000
      1111        16  CHL1      C3             26.5642752277      -51.2232676252       17.3049400000  MEMB      16              0.0000000000
      1112        16  CHL1      H3             27.6081537249      -51.5316307196       17.0823700000  MEMB      16              0.0000000000
      1113        16  CHL1      O3             26.5182961723      -50.8745501748       18.6950600000  MEMB      16              0.0000000000
      1114        16  CHL1      H3'            27.2911427508      -50.4177093919       19.0350600000  MEMB      16              0.0000000000
      1115        16  CHL1      C4             26.0123205993      -50.0975377708       16.4535400000  MEMB      16              0.0000000000
      1116        16  CHL1      H4A            24.9654376894      -49.8578113926       16.7379800000  MEMB      16              0.0000000000
      1117        16  CHL1      H4B            26.6107637803      -49.1785599036       16.6315200000  MEMB      16              0.0000000000
      1118        16  CHL1      C5             25.9268042445      -50.5157182300       15.0252000000  MEMB      16              0.0000000000
      1119        16  CHL1      C6             26.4446374852      -49.6803692833       14.0929600000  MEMB      16              0.0000000000
      1120        16  CHL1      H6             26.9318464978      -48.7759280826       14.4861600000  MEMB      16              0.0000000000
      1121        16  CHL1      C7             26.4614050408      -49.9574850578       12.6489500000  MEMB      16              0.0000000000
      1122        16  CHL1      H7A            26.2250983831      -49.1389768574       11.9358300000  MEMB      16              0.0000000000
      1123        16  CHL1      H7B            27.5070236530      -50.2512590192       12.4150800000  MEMB      16              0.0000000000
      1124        16  CHL1      C8             25.6589822050      -51.2267371993       12.2120300000  MEMB      16              0.0000000000
      1125        16  CHL1      H8             24.5693260612      -51.0176107516       12.1551300000  MEMB      16              0.0000000000
      1126        16  CHL1      C14            26.1815450965      -51.7949450107       10.8816500000  MEMB      16              0.0000000000
      1127        16  CHL1      H14            27.2005345399      -52.2140434992       11.0241900000  MEMB      16              0.0000000000
      1128        16  CHL1      C15            26.2599490618      -50.7752624464        9.7295100000  MEMB      16              0.0000000000
      1129        16  CHL1      H15A           25.2910297093      -50.2570929102        9.5651100000  MEMB      16              0.0000000000
      1130        16  CHL1      H15B           27.0986808860      -50.0767467049        9.9366800000  MEMB      16              0.0000000000
      1131        16  CHL1      C16            26.5373512312      -51.7267425048        8.5886200000  MEMB      16              0.0000000000
      1132        16  CHL1      H16A           26.1083884294      -51.4230521894        7.6098000000  MEMB      16              0.0000000000
      1133        16  CHL1      H16B           27.6432231415      -51.8271535059        8.5529000000  MEMB      16              0.0000000000
      1134        16  CHL1      C17            25.9797511386      -53.1893746591        8.9672600000  MEMB      16              0.0000000000
      1135        16  CHL1      H17            26.9016535166      -53.6959507620        9.3247600000  MEMB      16              0.0000000000
      1136        16  CHL1      C13            25.2652169288      -52.9794972474       10.3523100000  MEMB      16              0.0000000000
      1137        16  CHL1      C18            23.8000720582      -52.6164918575       10.1368000000  MEMB      16              0.0000000000
      1138        16  CHL1      H18A           23.1319712294      -53.4698984726        9.8925400000  MEMB      16              0.0000000000
      1139        16  CHL1      H18B           23.4091142396      -52.1964115573       11.0881100000  MEMB      16              0.0000000000
      1140        16  CHL1      H18C           23.5871477032      -51.8449469206        9.3662800000  MEMB      16              0.0000000000
      1141        16  CHL1      C12            25.4471954655      -54.1077900280       11.3964200000  MEMB      16              0.0000000000
      1142        16  CHL1      H12A           24.8247901408      -54.9744153197       11.0867400000  MEMB      16              0.0000000000
      1143        16  CHL1      H12B           26.5025083859      -54.4505438853       11.4527300000  MEMB      16              0.0000000000
      1144        16  CHL1      C11            24.9754508289      -53.6531558204       12.7999900000  MEMB      16              0.0000000000
      1145        16  CHL1      H11A           23.8964839047      -53.3906982713       12.7645700000  MEMB      16              0.0000000000
      1146        16  CHL1      H11B           25.1005835144      -54.4840690972       13.5268000000  MEMB      16              0.0000000000
      1147        16  CHL1      C9             25.7341790032      -52.3792091755       13.2838800000  MEMB      16              0.0000000000
      1148        16  CHL1      H9             26.8096373527      -52.6301368329       13.4053600000  MEMB      16              0.0000000000
      1149        16  CHL1      C10            25.3361115135      -51.8755822897       14.7042000000  MEMB      16              0.0000000000
      1150        16  CHL1      C19            23.8224188868      -51.6951814270       14.7317300000  MEMB      16              0.0000000000
      1151        16  CHL1      H19A           23.2797553323      -52.6609129954       14.6468100000  MEMB      16              0.0000000000
      1152        16  CHL1      H19B           23.5447283712      -51.2890162189       15.7278400000  MEMB      16              0.0000000000
      1153        16  CHL1      H19C           23.4708681190      -51.0779763893       13.8774500000  MEMB      16              0.0000000000
      1154        16  CHL1      C1             25.6525400782      -52.9439004509       15.7908000000  MEMB      16              0.0000000000
      1155        16  CHL1      H1A            25.0752647608      -53.8920344521       15.7448000000  MEMB      16              0.0000000000
      1156        16  CHL1      H1B            26.6804834731      -53.2530095451       15.5042900000  MEMB      16              0.0000000000
      1157        16  CHL1      C2             25.7387980259      -52.4898644309       17.2025100000  MEMB      16              0.0000000000
      1158        16  CHL1      H2A            26.0926678770      -53.2187269110       17.9626800000  MEMB      16              0.0000000000
      1159        16  CHL1      H2B            24.7391304797      -52.1837402452       17.5783700000  MEMB      16              0.0000000000
      1160        16  CHL1      C20            25.3120183054      -53.9598955229        7.8279300000  MEMB      16              0.0000000000
      1161        16  CHL1      H20            24.4920044392      -53.3097234787        7.4548900000  MEMB      16              0.0000000000
      1162        16  CHL1      C21            24.8940255382      -55.3800367897        8.3092300000  MEMB      16              0.0000000000
      1163        16  CHL1      H21A           24.0378274098      -55.2776561501        9.0097800000  MEMB      16              0.0000000000
      1164        16  CHL1      H21B           25.8122082342      -55.7785121796        8.7913800000  MEMB      16              0.0000000000
      1165        16  CHL1      H21C           24.6863593846      -56.0048313309        7.4143400000  MEMB      16              0.0000000000
      1166        16  CHL1      C22            26.1667293046      -53.9504960326        6.5471500000  MEMB      16              0.0000000000
      1167        16  CHL1      H22A           26.6431841625      -52.9851964335        6.2723700000  MEMB      16              0.0000000000
      1168        16  CHL1      H22B           27.0732087691      -54.5789007161        6.6802400000  MEMB      16              0.0000000000
      1169        16  CHL1      C23            25.4466456051      -54.3769041965        5.3000500000  MEMB      16              0.0000000000
      1170        16  CHL1      H23A           25.0265947289      -55.3899049040        5.4781100000  MEMB      16              0.0000000000
      1171        16  CHL1      H23B           24.5313969972      -53.7781461743        5.1047600000  MEMB      16              0.0000000000
      1172        16  CHL1      C24            26.2492928748      -54.3099418834        3.9594600000  MEMB      16              0.0000000000
      1173        16  CHL1      H24A           26.5043097949      -53.2413438860        3.7939500000  MEMB      16              0.0000000000
      1174        16  CHL1      H24B           27.1672210945      -54.9113938582        4.1326400000  MEMB      16              0.0000000000
      1175        16  CHL1      C25            25.5141429586      -54.8334357245        2.6791000000  MEMB      16              0.0000000000
      1176        16  CHL1      H25            24.5657643832      -54.2571460457        2.6262800000  MEMB      16              0.0000000000
      1177        16  CHL1      C26            26.3097736426      -54.6468827495        1.4204300000  MEMB      16              0.0000000000
      1178        16  CHL1      H26A           27.1235365665      -55.3936213030        1.5407700000  MEMB      16              0.0000000000
      1179        16  CHL1      H26B           25.7707896617      -54.7457845776        0.4539700000  MEMB      16              0.0000000000
      1180        16  CHL1      H26C           26.6904893049      -53.6032913417        1.4380400000  MEMB      16              0.0000000000
      1181        16  CHL1      C27            25.2818717796      -56.3723002163        2.7596900000  MEMB      16              0.0000000000
      1182        16  CHL1      H27A           24.5098398121      -56.7037110857        3.4866500000  MEMB      16              0.0000000000
      1183        16  CHL1      H27B           24.9133959153      -56.7037941618        1.7653800000  MEMB      16              0.0000000000
      1184        16  CHL1      H27C           26.2394952045      -56.8764952681        3.0108200000  MEMB      16              0.0000000000
      1185        17  CHL1      C3            -24.9589904285      -44.9574371674       17.3194600000  MEMB      17              0.0000000000
      1186        17  CHL1      H3            -24.6241351045      -45.9990892114       17.1267300000  MEMB      17              0.0000000000
      1187        17  CHL1      O3            -25.1701789715      -44.7954738326       18.6805400000  MEMB      17              0.0000000000
      1188        17  CHL1      H3'           -24.2979636666      -44.8524577121       19.0775100000  MEMB      17              0.0000000000
      1189        17  CHL1      C4            -23.9603459493      -43.9050337609       16.8560000000  MEMB      17              0.0000000000
      1190        17  CHL1      H4A           -24.2752729443      -42.8728783373       17.1202100000  MEMB      17              0.0000000000
      1191        17  CHL1      H4B           -23.0821555495      -44.0676949755       17.5167900000  MEMB      17              0.0000000000
      1192        17  CHL1      C5            -23.7124666196      -43.9104787238       15.3370600000  MEMB      17              0.0000000000
      1193        17  CHL1      C6            -22.4471292946      -43.8644680284       14.8503100000  MEMB      17              0.0000000000
      1194        17  CHL1      H6            -21.5784693160      -43.7689555862       15.5183700000  MEMB      17              0.0000000000
      1195        17  CHL1      C7            -22.2773399754      -43.6429950911       13.3736600000  MEMB      17              0.0000000000
      1196        17  CHL1      H7A           -21.3978878012      -42.9891911649       13.1908500000  MEMB      17              0.0000000000
      1197        17  CHL1      H7B           -21.9775037487      -44.5674420715       12.8353100000  MEMB      17              0.0000000000
      1198        17  CHL1      C8            -23.4758766563      -43.1258548272       12.5040800000  MEMB      17              0.0000000000
      1199        17  CHL1      H8            -23.5628535311      -42.0333258410       12.6860900000  MEMB      17              0.0000000000
      1200        17  CHL1      C14           -23.2783200419      -43.3793969463       11.0046400000  MEMB      17              0.0000000000
      1201        17  CHL1      H14           -23.1831788915      -44.4823302683       10.9108200000  MEMB      17              0.0000000000
      1202        17  CHL1      C15           -22.0244121641      -42.7161846747       10.3074500000  MEMB      17              0.0000000000
      1203        17  CHL1      H15A          -21.6880930213      -41.7525289827       10.7463000000  MEMB      17              0.0000000000
      1204        17  CHL1      H15B          -21.1847662967      -43.4424989964       10.3497100000  MEMB      17              0.0000000000
      1205        17  CHL1      C16           -22.3928858591      -42.6448512617        8.8991100000  MEMB      17              0.0000000000
      1206        17  CHL1      H16A          -22.2787990682      -41.5906086223        8.5676300000  MEMB      17              0.0000000000
      1207        17  CHL1      H16B          -21.7916056359      -43.2980099692        8.2311400000  MEMB      17              0.0000000000
      1208        17  CHL1      C17           -23.8174589869      -43.0720991137        8.7305000000  MEMB      17              0.0000000000
      1209        17  CHL1      H17           -23.7569699244      -44.1777528783        8.6400500000  MEMB      17              0.0000000000
      1210        17  CHL1      C13           -24.4330199496      -42.8248633967       10.1399600000  MEMB      17              0.0000000000
      1211        17  CHL1      C18           -24.6325006336      -41.2701530285       10.3244800000  MEMB      17              0.0000000000
      1212        17  CHL1      H18A          -25.5707937171      -40.9055758851        9.8543800000  MEMB      17              0.0000000000
      1213        17  CHL1      H18B          -24.8900234273      -41.0516413453       11.3829000000  MEMB      17              0.0000000000
      1214        17  CHL1      H18C          -23.7260557889      -40.6799950680       10.0707300000  MEMB      17              0.0000000000
      1215        17  CHL1      C12           -25.6801227496      -43.6275058349       10.4658300000  MEMB      17              0.0000000000
      1216        17  CHL1      H12A          -26.5227835798      -43.1471754801        9.9240500000  MEMB      17              0.0000000000
      1217        17  CHL1      H12B          -25.5440248032      -44.6996322914       10.2082600000  MEMB      17              0.0000000000
      1218        17  CHL1      C11           -25.9926764294      -43.6984938553       11.9957600000  MEMB      17              0.0000000000
      1219        17  CHL1      H11A          -26.3119219657      -42.6751127124       12.2874700000  MEMB      17              0.0000000000
      1220        17  CHL1      H11B          -26.8742494978      -44.3632001943       12.1195200000  MEMB      17              0.0000000000
      1221        17  CHL1      C9            -24.7524927378      -43.9122079953       12.9946600000  MEMB      17              0.0000000000
      1222        17  CHL1      H9            -24.4895056686      -44.9909655165       13.0327900000  MEMB      17              0.0000000000
      1223        17  CHL1      C10           -24.9507420306      -43.6495056198       14.5269300000  MEMB      17              0.0000000000
      1224        17  CHL1      C19           -25.5403674731      -42.2507825044       14.7260400000  MEMB      17              0.0000000000
      1225        17  CHL1      H19A          -26.4936327784      -42.1192386461       14.1708000000  MEMB      17              0.0000000000
      1226        17  CHL1      H19B          -25.7247699037      -42.1452476055       15.8165400000  MEMB      17              0.0000000000
      1227        17  CHL1      H19C          -24.8017160025      -41.4379796111       14.5584900000  MEMB      17              0.0000000000
      1228        17  CHL1      C1            -26.0683215186      -44.6494509536       14.9816700000  MEMB      17              0.0000000000
      1229        17  CHL1      H1A           -27.0618633889      -44.3961670969       14.5538300000  MEMB      17              0.0000000000
      1230        17  CHL1      H1B           -25.7141157856      -45.6395255319       14.6230500000  MEMB      17              0.0000000000
      1231        17  CHL1      C2            -26.2516687407      -44.7752537046       16.5579300000  MEMB      17              0.0000000000
      1232        17  CHL1      H2A           -26.9247251158      -45.6324113716       16.7738000000  MEMB      17              0.0000000000
      1233        17  CHL1      H2B           -26.6942925099      -43.8460104216       16.9761600000  MEMB      17              0.0000000000
      1234        17  CHL1      C20           -24.4674791154      -42.5581814739        7.4285800000  MEMB      17              0.0000000000
      1235        17  CHL1      H20           -24.5070022212      -41.4500606753        7.3591500000  MEMB      17              0.0000000000
      1236        17  CHL1      C21           -25.9186521287      -43.0177758404        7.3101600000  MEMB      17              0.0000000000
      1237        17  CHL1      H21A          -26.5345572568      -42.4530973371        8.0423600000  MEMB      17              0.0000000000
      1238        17  CHL1      H21B          -26.1093118072      -44.0983578606        7.4842600000  MEMB      17              0.0000000000
      1239        17  CHL1      H21C          -26.3013574859      -42.6694651317        6.3270400000  MEMB      17              0.0000000000
      1240        17  CHL1      C22           -23.5910056376      -43.0107113634        6.2075800000  MEMB      17              0.0000000000
      1241        17  CHL1      H22A          -24.1409653840      -42.5551228923        5.3565100000  MEMB      17              0.0000000000
      1242        17  CHL1      H22B          -22.5505862859      -42.6216984676        6.2303200000  MEMB      17              0.0000000000
      1243        17  CHL1      C23           -23.5134797136      -44.4402198014        5.8404700000  MEMB      17              0.0000000000
      1244        17  CHL1      H23A          -23.4846411316      -45.0397428080        6.7753800000  MEMB      17              0.0000000000
      1245        17  CHL1      H23B          -24.4581117652      -44.7320265762        5.3336700000  MEMB      17              0.0000000000
      1246        17  CHL1      C24           -22.3094755140      -44.7974931824        4.9608200000  MEMB      17              0.0000000000
      1247        17  CHL1      H24A          -22.1539845251      -43.9920381225        4.2115700000  MEMB      17              0.0000000000
      1248        17  CHL1      H24B          -21.4409971546      -44.7958794772        5.6536800000  MEMB      17              0.0000000000
      1249        17  CHL1      C25           -22.3470100204      -46.2980563314        4.3879900000  MEMB      17              0.0000000000
      1250        17  CHL1      H25           -23.2820144821      -46.5103553398        3.8267100000  MEMB      17              0.0000000000
      1251        17  CHL1      C26           -21.0863784101      -46.4914810796        3.5164300000  MEMB      17              0.0000000000
      1252        17  CHL1      H26A          -20.1286632130      -46.4358023238        4.0768000000  MEMB      17              0.0000000000
      1253        17  CHL1      H26B          -21.0567594672      -47.5130156988        3.0806400000  MEMB      17              0.0000000000
      1254        17  CHL1      H26C          -21.0486743111      -45.7083535420        2.7292800000  MEMB      17              0.0000000000
      1255        17  CHL1      C27           -22.1824782797      -47.3732112431        5.4617500000  MEMB      17              0.0000000000
      1256        17  CHL1      H27A          -23.1095239264      -47.4853485899        6.0636900000  MEMB      17              0.0000000000
      1257        17  CHL1      H27B          -21.9529792363      -48.3957215864        5.0928000000  MEMB      17              0.0000000000
      1258        17  CHL1      H27C          -21.3467088369      -47.0453569916        6.1162000000  MEMB      17              0.0000000000
      1259        18  CHL1      C3            -52.0176047845      -29.3709366033       17.2798650000  MEMB      18              0.0000000000
      1260        18  CHL1      H3            -52.2727574005      -30.4082339020       16.9745150000  MEMB      18              0.0000000000
      1261        18  CHL1      O3            -51.9728362155      -29.3169791967       18.7201350000  MEMB      18              0.0000000000
      1262        18  CHL1      H3'           -51.0934205075      -29.6537488636       18.9067150000  MEMB      18              0.0000000000
      1263        18  CHL1      C4            -50.7190375960      -28.8911573960       16.6236850000  MEMB      18              0.0000000000
      1264        18  CHL1      H4A           -50.5707944979      -27.8290333717       16.9138950000  MEMB      18              0.0000000000
      1265        18  CHL1      H4B           -49.7712793614      -29.3884999550       16.9215550000  MEMB      18              0.0000000000
      1266        18  CHL1      C5            -50.8795595556      -28.9833527716       15.0687750000  MEMB      18              0.0000000000
      1267        18  CHL1      C6            -49.9325333114      -29.5871901976       14.3253250000  MEMB      18              0.0000000000
      1268        18  CHL1      H6            -49.0219121113      -30.0038105912       14.7805150000  MEMB      18              0.0000000000
      1269        18  CHL1      C7            -50.1160938947      -29.5917888888       12.8388050000  MEMB      18              0.0000000000
      1270        18  CHL1      H7A           -49.1453904944      -29.4046005371       12.3318450000  MEMB      18              0.0000000000
      1271        18  CHL1      H7B           -50.5606175622      -30.5426560143       12.4747050000  MEMB      18              0.0000000000
      1272        18  CHL1      C8            -50.9940591399      -28.5138014005       12.2964650000  MEMB      18              0.0000000000
      1273        18  CHL1      H8            -50.5773708155      -27.4848497293       12.3406950000  MEMB      18              0.0000000000
      1274        18  CHL1      C14           -51.3338585570      -28.7825753029       10.8336350000  MEMB      18              0.0000000000
      1275        18  CHL1      H14           -51.8282215705      -29.7762050451       10.8849450000  MEMB      18              0.0000000000
      1276        18  CHL1      C15           -50.1541291933      -29.0647134956        9.8263950000  MEMB      18              0.0000000000
      1277        18  CHL1      H15A          -49.2786360548      -28.4589726262       10.1440650000  MEMB      18              0.0000000000
      1278        18  CHL1      H15B          -49.8401675434      -30.1189637052        9.9823650000  MEMB      18              0.0000000000
      1279        18  CHL1      C16           -50.6129144648      -28.7303448529        8.3877650000  MEMB      18              0.0000000000
      1280        18  CHL1      H16A          -50.0957485432      -27.7727790246        8.1642950000  MEMB      18              0.0000000000
      1281        18  CHL1      H16B          -50.3290601036      -29.4950877395        7.6335050000  MEMB      18              0.0000000000
      1282        18  CHL1      C17           -52.1516744027      -28.4212420071        8.7062750000  MEMB      18              0.0000000000
      1283        18  CHL1      H17           -52.6522261858      -29.4122489016        8.7474250000  MEMB      18              0.0000000000
      1284        18  CHL1      C13           -52.3293657335      -27.8677718350       10.1286050000  MEMB      18              0.0000000000
      1285        18  CHL1      C18           -51.7436239078      -26.4588941138       10.2800850000  MEMB      18              0.0000000000
      1286        18  CHL1      H18A          -51.6256925120      -26.1179890994       11.3308850000  MEMB      18              0.0000000000
      1287        18  CHL1      H18B          -50.7082309131      -26.3433659273        9.8941750000  MEMB      18              0.0000000000
      1288        18  CHL1      H18C          -52.2911443588      -25.6342065327        9.7756650000  MEMB      18              0.0000000000
      1289        18  CHL1      C12           -53.6657744576      -28.0423656350       10.8906250000  MEMB      18              0.0000000000
      1290        18  CHL1      H12A          -54.4304874096      -27.3829826783       10.4271950000  MEMB      18              0.0000000000
      1291        18  CHL1      H12B          -54.0454832947      -29.0863966305       10.8792750000  MEMB      18              0.0000000000
      1292        18  CHL1      C11           -53.5063782728      -27.7504088196       12.3402150000  MEMB      18              0.0000000000
      1293        18  CHL1      H11A          -53.1574343381      -26.7019392111       12.4554550000  MEMB      18              0.0000000000
      1294        18  CHL1      H11B          -54.4872845881      -27.9273327898       12.8309550000  MEMB      18              0.0000000000
      1295        18  CHL1      C9            -52.3051039101      -28.5889627535       13.0221350000  MEMB      18              0.0000000000
      1296        18  CHL1      H9            -52.6664506384      -29.6395123653       13.0311550000  MEMB      18              0.0000000000
      1297        18  CHL1      C10           -52.1251598459      -28.2550653819       14.5382150000  MEMB      18              0.0000000000
      1298        18  CHL1      C19           -51.9687049032      -26.6696341147       14.7166550000  MEMB      18              0.0000000000
      1299        18  CHL1      H19A          -51.2916800937      -26.3033264246       13.9155350000  MEMB      18              0.0000000000
      1300        18  CHL1      H19B          -52.9429720294      -26.2260630051       14.4193950000  MEMB      18              0.0000000000
      1301        18  CHL1      H19C          -51.7355549655      -26.2493549862       15.7183150000  MEMB      18              0.0000000000
      1302        18  CHL1      C1            -53.4356424252      -28.5970204652       15.3133350000  MEMB      18              0.0000000000
      1303        18  CHL1      H1A           -54.2962005104      -27.9717495730       14.9927250000  MEMB      18              0.0000000000
      1304        18  CHL1      H1B           -53.6384770024      -29.6351734023       14.9736250000  MEMB      18              0.0000000000
      1305        18  CHL1      C2            -53.2520644088      -28.5248563612       16.7930450000  MEMB      18              0.0000000000
      1306        18  CHL1      H2A           -54.1558896424      -28.9658243066       17.2652450000  MEMB      18              0.0000000000
      1307        18  CHL1      H2B           -53.1016776031      -27.4748706653       17.1235350000  MEMB      18              0.0000000000
      1308        18  CHL1      C20           -52.8564433699      -27.6443429209        7.5405150000  MEMB      18              0.0000000000
      1309        18  CHL1      H20           -52.3849233382      -26.6601374973        7.3323950000  MEMB      18              0.0000000000
      1310        18  CHL1      C21           -54.2954715281      -27.3230530117        7.7940650000  MEMB      18              0.0000000000
      1311        18  CHL1      H21A          -54.4077067198      -26.4451393512        8.4656150000  MEMB      18              0.0000000000
      1312        18  CHL1      H21B          -54.8868369147      -28.1120300967        8.3060450000  MEMB      18              0.0000000000
      1313        18  CHL1      H21C          -54.8601042658      -26.8402793324        6.9679550000  MEMB      18              0.0000000000
      1314        18  CHL1      C22           -52.7084801487      -28.4054291570        6.1688450000  MEMB      18              0.0000000000
      1315        18  CHL1      H22A          -51.6641077422      -28.5435988812        5.8159750000  MEMB      18              0.0000000000
      1316        18  CHL1      H22B          -53.1620320749      -29.4143026670        6.2727050000  MEMB      18              0.0000000000
      1317        18  CHL1      C23           -53.3311311451      -27.6051669510        4.9644550000  MEMB      18              0.0000000000
      1318        18  CHL1      H23A          -54.4346329258      -27.6834636539        5.0667650000  MEMB      18              0.0000000000
      1319        18  CHL1      H23B          -53.0123200025      -26.5624531511        5.1775650000  MEMB      18              0.0000000000
      1320        18  CHL1      C24           -52.9119105628      -27.9795089581        3.5701250000  MEMB      18              0.0000000000
      1321        18  CHL1      H24A          -51.8241856399      -27.7533044080        3.5680250000  MEMB      18              0.0000000000
      1322        18  CHL1      H24B          -53.0641234329      -29.0513601974        3.3205450000  MEMB      18              0.0000000000
      1323        18  CHL1      C25           -53.5191041741      -27.1572366693        2.4444250000  MEMB      18              0.0000000000
      1324        18  CHL1      H25           -53.2902711909      -26.0929933703        2.6665750000  MEMB      18              0.0000000000
      1325        18  CHL1      C26           -52.9932664304      -27.4489703150        1.0976050000  MEMB      18              0.0000000000
      1326        18  CHL1      H26A          -53.2368577921      -28.4595763810        0.7056150000  MEMB      18              0.0000000000
      1327        18  CHL1      H26B          -53.4556022022      -26.7091439863        0.4096950000  MEMB      18              0.0000000000
      1328        18  CHL1      H26C          -51.8976575116      -27.2647873678        1.1049650000  MEMB      18              0.0000000000
      1329        18  CHL1      C27           -55.0866020354      -27.3483347969        2.3731850000  MEMB      18              0.0000000000
      1330        18  CHL1      H27A          -55.5237372056      -28.3440497385        2.1455950000  MEMB      18              0.0000000000
      1331        18  CHL1      H27B          -55.5215588021      -26.9710961371        3.3233550000  MEMB      18              0.0000000000
      1332        18  CHL1      H27C          -55.3857860779      -26.6566224810        1.5568850000  MEMB      18              0.0000000000
      1333        19  CHL1      C3             39.9133736455       48.6088516516       17.3271550000  MEMB      19              0.0000000000
      1334        19  CHL1      H3             39.3684904919       47.7035921430       16.9837550000  MEMB      19              0.0000000000
      1335        19  CHL1      O3             40.0014595545       48.4694143484       18.6728450000  MEMB      19              0.0000000000
      1336        19  CHL1      H3'            40.5727947434       47.7087230163       18.8013950000  MEMB      19              0.0000000000
      1337        19  CHL1      C4             41.3414170403       48.6076045108       16.6936750000  MEMB      19              0.0000000000
      1338        19  CHL1      H4A            42.0612670576       49.2867637332       17.1985350000  MEMB      19              0.0000000000
      1339        19  CHL1      H4B            41.7689785675       47.5984258044       16.8755350000  MEMB      19              0.0000000000
      1340        19  CHL1      C5             41.3956691349       48.8937695471       15.2486550000  MEMB      19              0.0000000000
      1341        19  CHL1      C6             41.8945983696       47.9711393059       14.3967550000  MEMB      19              0.0000000000
      1342        19  CHL1      H6             42.1226278880       46.9210433175       14.6319150000  MEMB      19              0.0000000000
      1343        19  CHL1      C7             41.9482836603       48.2062802427       12.8690050000  MEMB      19              0.0000000000
      1344        19  CHL1      H7A            42.9066618391       47.9245648245       12.3827450000  MEMB      19              0.0000000000
      1345        19  CHL1      H7B            41.0734392992       47.6618271664       12.4536350000  MEMB      19              0.0000000000
      1346        19  CHL1      C8             41.7142001821       49.7384539519       12.5706950000  MEMB      19              0.0000000000
      1347        19  CHL1      H8             42.6577139495       50.2962323101       12.7523150000  MEMB      19              0.0000000000
      1348        19  CHL1      C14            41.6174693984       49.8799837752       11.0854050000  MEMB      19              0.0000000000
      1349        19  CHL1      H14            40.7109419844       49.2979518344       10.8137950000  MEMB      19              0.0000000000
      1350        19  CHL1      C15            42.7396638062       49.3869656160       10.3095950000  MEMB      19              0.0000000000
      1351        19  CHL1      H15A           43.7642286065       49.6414192907       10.6557950000  MEMB      19              0.0000000000
      1352        19  CHL1      H15B           42.7149530629       48.2835251366       10.4365350000  MEMB      19              0.0000000000
      1353        19  CHL1      C16            42.5300558498       49.8921335279        8.9065650000  MEMB      19              0.0000000000
      1354        19  CHL1      H16A           43.3961794168       50.4077091398        8.4393150000  MEMB      19              0.0000000000
      1355        19  CHL1      H16B           42.2859263762       49.0922464427        8.1752050000  MEMB      19              0.0000000000
      1356        19  CHL1      C17            41.3781877121       50.9280135551        9.0142650000  MEMB      19              0.0000000000
      1357        19  CHL1      H17            40.4843062727       50.3070328194        8.7913750000  MEMB      19              0.0000000000
      1358        19  CHL1      C13            41.3413412382       51.2165765530       10.5407150000  MEMB      19              0.0000000000
      1359        19  CHL1      C18            42.5029575236       52.1762741066       10.8649850000  MEMB      19              0.0000000000
      1360        19  CHL1      H18A           43.4468960744       51.9759642296       10.3143550000  MEMB      19              0.0000000000
      1361        19  CHL1      H18B           42.1609225756       53.2034486112       10.6155050000  MEMB      19              0.0000000000
      1362        19  CHL1      H18C           42.7619349672       52.3099055989       11.9370850000  MEMB      19              0.0000000000
      1363        19  CHL1      C12            40.0174600854       51.7279108305       11.2630950000  MEMB      19              0.0000000000
      1364        19  CHL1      H12A           39.8092179714       52.7593963076       10.9067150000  MEMB      19              0.0000000000
      1365        19  CHL1      H12B           39.1908722445       51.0785775498       10.9033250000  MEMB      19              0.0000000000
      1366        19  CHL1      C11            40.1308239914       51.6967791197       12.8072950000  MEMB      19              0.0000000000
      1367        19  CHL1      H11A           40.8013939551       52.5558164823       13.0234250000  MEMB      19              0.0000000000
      1368        19  CHL1      H11B           39.1435668780       51.9549727685       13.2466150000  MEMB      19              0.0000000000
      1369        19  CHL1      C9             40.6242279218       50.3001280519       13.2947050000  MEMB      19              0.0000000000
      1370        19  CHL1      H9             39.7639483728       49.6132920965       13.1447050000  MEMB      19              0.0000000000
      1371        19  CHL1      C10            40.8107092780       50.2521454634       14.8268550000  MEMB      19              0.0000000000
      1372        19  CHL1      C19            41.8480429441       51.3318747577       15.2933750000  MEMB      19              0.0000000000
      1373        19  CHL1      H19A           42.9052237133       51.1608201792       14.9976950000  MEMB      19              0.0000000000
      1374        19  CHL1      H19B           41.5159722136       52.3576301180       15.0252950000  MEMB      19              0.0000000000
      1375        19  CHL1      H19C           41.8788680559       51.3148162499       16.4038250000  MEMB      19              0.0000000000
      1376        19  CHL1      C1             39.4000451166       50.3117795236       15.4434350000  MEMB      19              0.0000000000
      1377        19  CHL1      H1A            39.1552537595       51.3634747813       15.1820250000  MEMB      19              0.0000000000
      1378        19  CHL1      H1B            38.6158498547       49.7624500836       14.8798750000  MEMB      19              0.0000000000
      1379        19  CHL1      C2             39.2893105669       49.9601480870       16.9966650000  MEMB      19              0.0000000000
      1380        19  CHL1      H2A            38.2358155233       50.1149032444       17.3137250000  MEMB      19              0.0000000000
      1381        19  CHL1      H2B            40.0038196173       50.6625957416       17.4766150000  MEMB      19              0.0000000000
      1382        19  CHL1      C20            41.4447122111       52.1118363879        7.9862950000  MEMB      19              0.0000000000
      1383        19  CHL1      H20            42.3396857137       52.7457516471        8.1637650000  MEMB      19              0.0000000000
      1384        19  CHL1      C21            40.1809466885       52.9641031734        8.1096050000  MEMB      19              0.0000000000
      1385        19  CHL1      H21A           39.3460083508       52.2419048791        7.9846550000  MEMB      19              0.0000000000
      1386        19  CHL1      H21B           40.0911350370       53.6949399219        7.2776650000  MEMB      19              0.0000000000
      1387        19  CHL1      H21C           40.0454653487       53.6279906279        8.9900750000  MEMB      19              0.0000000000
      1388        19  CHL1      C22            41.5056961173       51.6139667077        6.5394650000  MEMB      19              0.0000000000
      1389        19  CHL1      H22A           42.0885831733       50.6764932878        6.4141450000  MEMB      19              0.0000000000
      1390        19  CHL1      H22B           40.4721341920       51.3000113226        6.2796450000  MEMB      19              0.0000000000
      1391        19  CHL1      C23            41.8778584522       52.6453646274        5.4575750000  MEMB      19              0.0000000000
      1392        19  CHL1      H23A           41.1408711716       53.4544363382        5.2663050000  MEMB      19              0.0000000000
      1393        19  CHL1      H23B           42.7830706722       53.1485425134        5.8597250000  MEMB      19              0.0000000000
      1394        19  CHL1      C24            42.0649699191       51.8949198088        4.1056250000  MEMB      19              0.0000000000
      1395        19  CHL1      H24A           42.9759621451       51.2860313526        4.2891050000  MEMB      19              0.0000000000
      1396        19  CHL1      H24B           41.2364815131       51.2026728898        3.8434850000  MEMB      19              0.0000000000
      1397        19  CHL1      C25            42.2184188173       52.8756029099        2.9109950000  MEMB      19              0.0000000000
      1398        19  CHL1      H25            43.0987624864       53.4911300160        3.1946050000  MEMB      19              0.0000000000
      1399        19  CHL1      C26            42.3623802301       52.0960731531        1.5964450000  MEMB      19              0.0000000000
      1400        19  CHL1      H26A           41.3975955754       51.5603781405        1.4678650000  MEMB      19              0.0000000000
      1401        19  CHL1      H26B           42.5365974600       52.8002875129        0.7549750000  MEMB      19              0.0000000000
      1402        19  CHL1      H26C           43.1513102103       51.3157003960        1.5422850000  MEMB      19              0.0000000000
      1403        19  CHL1      C27            41.0782988670       53.8518811695        2.7026250000  MEMB      19              0.0000000000
      1404        19  CHL1      H27A           40.1361221738       53.3394031373        2.4128050000  MEMB      19              0.0000000000
      1405        19  CHL1      H27B           41.0279311551       54.5175696369        3.5906850000  MEMB      19              0.0000000000
      1406        19  CHL1      H27C           41.2969827549       54.4255212411        1.7766450000  MEMB      19              0.0000000000
      1407        20  CHL1      C3            -26.0775828772       34.2012944219       17.3636000000  MEMB      20              0.0000000000
      1408        20  CHL1      H3            -26.2820401070       33.1128246169       17.4516700000  MEMB      20              0.0000000000
      1409        20  CHL1      O3            -26.2093317228       34.7424073781       18.6364000000  MEMB      20              0.0000000000
      1410        20  CHL1      H3'           -26.6777454238       34.1029350353       19.1779400000  MEMB      20              0.0000000000
      1411        20  CHL1      C4            -24.6253967581       34.4478446968       16.8398900000  MEMB      20              0.0000000000
      1412        20  CHL1      H4A           -24.4362345824       35.5424492079       16.8205400000  MEMB      20              0.0000000000
      1413        20  CHL1      H4B           -23.9385003793       33.8469790928       17.4735000000  MEMB      20              0.0000000000
      1414        20  CHL1      C5            -24.4612760066       34.0755247078       15.4104400000  MEMB      20              0.0000000000
      1415        20  CHL1      C6            -23.5840677167       33.1104081894       14.9687800000  MEMB      20              0.0000000000
      1416        20  CHL1      H6            -22.8318153883       32.6738475845       15.6422200000  MEMB      20              0.0000000000
      1417        20  CHL1      C7            -23.3247995542       32.7397185963       13.5780100000  MEMB      20              0.0000000000
      1418        20  CHL1      H7A           -22.2548191380       32.8207475264       13.2900800000  MEMB      20              0.0000000000
      1419        20  CHL1      H7B           -23.6731434187       31.6900157886       13.4726800000  MEMB      20              0.0000000000
      1420        20  CHL1      C8            -23.9904063164       33.6904477455       12.5606300000  MEMB      20              0.0000000000
      1421        20  CHL1      H8            -23.4426629889       34.6527210809       12.4693600000  MEMB      20              0.0000000000
      1422        20  CHL1      C14           -24.0630024528       32.9489495823       11.2295700000  MEMB      20              0.0000000000
      1423        20  CHL1      H14           -24.5793675897       32.0092874399       11.5206400000  MEMB      20              0.0000000000
      1424        20  CHL1      C15           -22.7042451875       32.5977039250       10.5784600000  MEMB      20              0.0000000000
      1425        20  CHL1      H15A          -22.0170761396       33.4697862149       10.5387100000  MEMB      20              0.0000000000
      1426        20  CHL1      H15B          -22.1220335324       31.8566397532       11.1668300000  MEMB      20              0.0000000000
      1427        20  CHL1      C16           -23.1787814740       32.2383059793        9.1098400000  MEMB      20              0.0000000000
      1428        20  CHL1      H16A          -22.4141959661       32.5298850188        8.3583700000  MEMB      20              0.0000000000
      1429        20  CHL1      H16B          -23.3529685828       31.1433797999        9.0384000000  MEMB      20              0.0000000000
      1430        20  CHL1      C17           -24.5107939425       32.9739482255        8.8667100000  MEMB      20              0.0000000000
      1431        20  CHL1      H17           -25.2399871498       32.1361120759        8.8417200000  MEMB      20              0.0000000000
      1432        20  CHL1      C13           -24.7713842187       33.7680697547       10.1313100000  MEMB      20              0.0000000000
      1433        20  CHL1      C18           -24.0210999091       35.1466257488        9.8197000000  MEMB      20              0.0000000000
      1434        20  CHL1      H18A          -23.0849477970       35.0530157753        9.2288000000  MEMB      20              0.0000000000
      1435        20  CHL1      H18B          -24.6460088623       35.8343915592        9.2107800000  MEMB      20              0.0000000000
      1436        20  CHL1      H18C          -23.6146963060       35.6302494851       10.7336300000  MEMB      20              0.0000000000
      1437        20  CHL1      C12           -26.2183802890       33.9746437068       10.5915900000  MEMB      20              0.0000000000
      1438        20  CHL1      H12A          -26.8202890207       34.4981858943        9.8183300000  MEMB      20              0.0000000000
      1439        20  CHL1      H12B          -26.7550499680       33.0053906000       10.6743700000  MEMB      20              0.0000000000
      1440        20  CHL1      C11           -26.2368353881       34.7480743083       11.9255200000  MEMB      20              0.0000000000
      1441        20  CHL1      H11A          -25.7540052106       35.7455249695       11.8462200000  MEMB      20              0.0000000000
      1442        20  CHL1      H11B          -27.3121960347       34.7744152457       12.2034000000  MEMB      20              0.0000000000
      1443        20  CHL1      C9            -25.4227862065       34.0068754461       12.9726200000  MEMB      20              0.0000000000
      1444        20  CHL1      H9            -25.9971695522       33.0652517847       13.1058700000  MEMB      20              0.0000000000
      1445        20  CHL1      C10           -25.4584900777       34.7003742970       14.3818100000  MEMB      20              0.0000000000
      1446        20  CHL1      C19           -25.1872324803       36.1753806339       14.2114200000  MEMB      20              0.0000000000
      1447        20  CHL1      H19A          -26.0617827184       36.6692531208       13.7364800000  MEMB      20              0.0000000000
      1448        20  CHL1      H19B          -25.0485539656       36.7740025735       15.1370200000  MEMB      20              0.0000000000
      1449        20  CHL1      H19C          -24.2858236487       36.3478044374       13.5852800000  MEMB      20              0.0000000000
      1450        20  CHL1      C1            -26.9057428646       34.4760253922       14.9831600000  MEMB      20              0.0000000000
      1451        20  CHL1      H1A           -27.6704214812       34.9760078534       14.3510100000  MEMB      20              0.0000000000
      1452        20  CHL1      H1B           -27.2116655959       33.4130937730       15.0876100000  MEMB      20              0.0000000000
      1453        20  CHL1      C2            -27.0634089192       34.9075996358       16.4902500000  MEMB      20              0.0000000000
      1454        20  CHL1      H2A           -28.0977932519       34.7309303830       16.8551600000  MEMB      20              0.0000000000
      1455        20  CHL1      H2B           -27.0451551503       36.0182314294       16.5120700000  MEMB      20              0.0000000000
      1456        20  CHL1      C20           -24.7157955716       33.6548252051        7.4241700000  MEMB      20              0.0000000000
      1457        20  CHL1      H20           -24.0772795851       34.5362250060        7.2011500000  MEMB      20              0.0000000000
      1458        20  CHL1      C21           -26.2029289105       34.1649124244        7.2476500000  MEMB      20              0.0000000000
      1459        20  CHL1      H21A          -26.3100905917       34.5977369356        6.2300500000  MEMB      20              0.0000000000
      1460        20  CHL1      H21B          -26.4236180596       35.0162616825        7.9264900000  MEMB      20              0.0000000000
      1461        20  CHL1      H21C          -26.9369918061       33.3321392321        7.2919700000  MEMB      20              0.0000000000
      1462        20  CHL1      C22           -24.3183394566       32.6495921313        6.3985500000  MEMB      20              0.0000000000
      1463        20  CHL1      H22A          -23.2954387365       32.2760252198        6.6186000000  MEMB      20              0.0000000000
      1464        20  CHL1      H22B          -24.9325982283       31.7329312139        6.5279700000  MEMB      20              0.0000000000
      1465        20  CHL1      C23           -24.4229012164       33.1121808291        4.9153300000  MEMB      20              0.0000000000
      1466        20  CHL1      H23A          -24.0168537154       32.2202808797        4.3919200000  MEMB      20              0.0000000000
      1467        20  CHL1      H23B          -25.4773492310       33.2223828720        4.5832000000  MEMB      20              0.0000000000
      1468        20  CHL1      C24           -23.3680857280       34.2387278430        4.5789300000  MEMB      20              0.0000000000
      1469        20  CHL1      H24A          -23.5980241289       35.1816109217        5.1196800000  MEMB      20              0.0000000000
      1470        20  CHL1      H24B          -22.3856413135       33.8981639168        4.9702700000  MEMB      20              0.0000000000
      1471        20  CHL1      C25           -23.4036374729       34.5921755369        3.1133200000  MEMB      20              0.0000000000
      1472        20  CHL1      H25           -24.4150967088       35.0409102083        3.0137500000  MEMB      20              0.0000000000
      1473        20  CHL1      C26           -22.3128013358       35.5834693520        2.7567700000  MEMB      20              0.0000000000
      1474        20  CHL1      H26A          -22.2436475389       36.4511214683        3.4472200000  MEMB      20              0.0000000000
      1475        20  CHL1      H26B          -21.4393052976       34.9009087002        2.8306200000  MEMB      20              0.0000000000
      1476        20  CHL1      H26C          -22.3740718617       35.7994448134        1.6686900000  MEMB      20              0.0000000000
      1477        20  CHL1      C27           -23.2915921891       33.5066150113        2.0501100000  MEMB      20              0.0000000000
      1478        20  CHL1      H27A          -24.2944916101       33.0349377615        1.9724800000  MEMB      20              0.0000000000
      1479        20  CHL1      H27B          -23.2166116939       33.9952553415        1.0551600000  MEMB      20              0.0000000000
      1480        20  CHL1      H27C          -22.4362789108       32.8087580286        2.1756100000  MEMB      20              0.0000000000
      1481        21  CHL1      C3            -57.3476743739       58.2705993644       17.3090550000  MEMB      21              0.0000000000
      1482        21  CHL1      H3            -56.3805293882       58.7461235063       17.0392050000  MEMB      21              0.0000000000
      1483        21  CHL1      O3            -57.3968340261       58.0238882356       18.6909450000  MEMB      21              0.0000000000
      1484        21  CHL1      H3'           -56.5616653064       57.6462819449       18.9764350000  MEMB      21              0.0000000000
      1485        21  CHL1      C4            -58.4382431589       59.2358036611       16.8582850000  MEMB      21              0.0000000000
      1486        21  CHL1      H4A           -59.4419055312       58.8651357397       17.1575850000  MEMB      21              0.0000000000
      1487        21  CHL1      H4B           -58.1820050232       60.1821078451       17.3809350000  MEMB      21              0.0000000000
      1488        21  CHL1      C5            -58.3796205470       59.3920952583       15.3228150000  MEMB      21              0.0000000000
      1489        21  CHL1      C6            -58.2530111126       60.5890023201       14.8109050000  MEMB      21              0.0000000000
      1490        21  CHL1      H6            -58.1467941750       61.4431304974       15.4958750000  MEMB      21              0.0000000000
      1491        21  CHL1      C7            -58.3784862190       60.8591817591       13.3356850000  MEMB      21              0.0000000000
      1492        21  CHL1      H7A           -58.9663582921       61.7758526440       13.1155750000  MEMB      21              0.0000000000
      1493        21  CHL1      H7B           -57.3868555547       61.0830472813       12.8875050000  MEMB      21              0.0000000000
      1494        21  CHL1      C8            -58.9314576322       59.6441350132       12.5034550000  MEMB      21              0.0000000000
      1495        21  CHL1      H8            -60.0271070205       59.5779037140       12.6751450000  MEMB      21              0.0000000000
      1496        21  CHL1      C14           -58.6852677652       59.7655922925       10.9436050000  MEMB      21              0.0000000000
      1497        21  CHL1      H14           -57.6019717494       59.8971184659       10.7350350000  MEMB      21              0.0000000000
      1498        21  CHL1      C15           -59.3791653305       60.9340117536       10.2608850000  MEMB      21              0.0000000000
      1499        21  CHL1      H15A          -60.4238293788       61.0073581628       10.6318450000  MEMB      21              0.0000000000
      1500        21  CHL1      H15B          -58.9090095163       61.9126542248       10.4965550000  MEMB      21              0.0000000000
      1501        21  CHL1      C16           -59.1972119886       60.6275668444        8.7736150000  MEMB      21              0.0000000000
      1502        21  CHL1      H16A          -60.1783156938       60.6424042596        8.2525250000  MEMB      21              0.0000000000
      1503        21  CHL1      H16B          -58.5318224155       61.3538820839        8.2597750000  MEMB      21              0.0000000000
      1504        21  CHL1      C17           -58.6380496656       59.2152457529        8.7153050000  MEMB      21              0.0000000000
      1505        21  CHL1      H17           -57.5316302045       59.3160451549        8.7132250000  MEMB      21              0.0000000000
      1506        21  CHL1      C13           -59.0983147123       58.6052606298       10.0301250000  MEMB      21              0.0000000000
      1507        21  CHL1      C18           -60.6083780454       58.2948211336       10.0587250000  MEMB      21              0.0000000000
      1508        21  CHL1      H18A          -60.8974955558       57.2484354247        9.8224650000  MEMB      21              0.0000000000
      1509        21  CHL1      H18B          -61.0336398107       58.6111284738       11.0351550000  MEMB      21              0.0000000000
      1510        21  CHL1      H18C          -61.0352692816       58.8817753810        9.2175650000  MEMB      21              0.0000000000
      1511        21  CHL1      C12           -58.3081127049       57.3311808387       10.5933850000  MEMB      21              0.0000000000
      1512        21  CHL1      H12A          -58.5388999915       56.4470143749        9.9614750000  MEMB      21              0.0000000000
      1513        21  CHL1      H12B          -57.2218779264       57.5506981126       10.5144350000  MEMB      21              0.0000000000
      1514        21  CHL1      C11           -58.5700118900       57.1235155510       12.0947750000  MEMB      21              0.0000000000
      1515        21  CHL1      H11A          -59.5891264083       56.6955021983       11.9828150000  MEMB      21              0.0000000000
      1516        21  CHL1      H11B          -57.9116697123       56.2923715276       12.4266150000  MEMB      21              0.0000000000
      1517        21  CHL1      C9            -58.3342319238       58.2964768013       13.0177650000  MEMB      21              0.0000000000
      1518        21  CHL1      H9            -57.2284437389       58.3971667033       12.9801450000  MEMB      21              0.0000000000
      1519        21  CHL1      C10           -58.5854773297       58.1066564565       14.5389550000  MEMB      21              0.0000000000
      1520        21  CHL1      C19           -60.0526714627       57.6512845054       14.7118050000  MEMB      21              0.0000000000
      1521        21  CHL1      H19A          -60.7900278798       58.4751610894       14.6029650000  MEMB      21              0.0000000000
      1522        21  CHL1      H19B          -60.2710989722       56.8516190719       13.9721150000  MEMB      21              0.0000000000
      1523        21  CHL1      H19C          -60.2804848662       57.2861640609       15.7360650000  MEMB      21              0.0000000000
      1524        21  CHL1      C1            -57.5570135825       56.9763968471       15.0398950000  MEMB      21              0.0000000000
      1525        21  CHL1      H1A           -57.6782441416       55.9454042832       14.6440650000  MEMB      21              0.0000000000
      1526        21  CHL1      H1B           -56.5356679180       57.3221977184       14.7723450000  MEMB      21              0.0000000000
      1527        21  CHL1      C2            -57.5481211906       56.8991981873       16.6102350000  MEMB      21              0.0000000000
      1528        21  CHL1      H2A           -56.8158801166       56.1836603322       17.0416850000  MEMB      21              0.0000000000
      1529        21  CHL1      H2B           -58.5531681907       56.5070488366       16.8755750000  MEMB      21              0.0000000000
      1530        21  CHL1      C20           -59.0748789002       58.5606307607        7.3797150000  MEMB      21              0.0000000000
      1531        21  CHL1      H20           -60.1756143536       58.4515365738        7.2757550000  MEMB      21              0.0000000000
      1532        21  CHL1      C21           -58.4043821455       57.1658093357        7.0966250000  MEMB      21              0.0000000000
      1533        21  CHL1      H21A          -58.8600147447       56.6918967309        6.2010050000  MEMB      21              0.0000000000
      1534        21  CHL1      H21B          -58.7107653594       56.5288931617        7.9538150000  MEMB      21              0.0000000000
      1535        21  CHL1      H21C          -57.2996872908       57.2802288528        7.0672250000  MEMB      21              0.0000000000
      1536        21  CHL1      C22           -58.7312864826       59.4749058577        6.2490450000  MEMB      21              0.0000000000
      1537        21  CHL1      H22A          -59.1940692630       60.4826396955        6.3170150000  MEMB      21              0.0000000000
      1538        21  CHL1      H22B          -57.6625473836       59.7738286534        6.1964250000  MEMB      21              0.0000000000
      1539        21  CHL1      C23           -58.9943229758       58.9163133417        4.8719250000  MEMB      21              0.0000000000
      1540        21  CHL1      H23A          -58.3612007335       58.0627569701        4.5480450000  MEMB      21              0.0000000000
      1541        21  CHL1      H23B          -60.0259893574       58.5261282289        4.7386650000  MEMB      21              0.0000000000
      1542        21  CHL1      C24           -58.7254675212       59.9257150920        3.7842950000  MEMB      21              0.0000000000
      1543        21  CHL1      H24A          -59.3228357614       60.8419257495        3.9793250000  MEMB      21              0.0000000000
      1544        21  CHL1      H24B          -57.6399799380       60.1194057691        3.9203650000  MEMB      21              0.0000000000
      1545        21  CHL1      C25           -58.9862869535       59.5048916812        2.2777650000  MEMB      21              0.0000000000
      1546        21  CHL1      H25           -60.0971164820       59.5156198300        2.2618450000  MEMB      21              0.0000000000
      1547        21  CHL1      C26           -58.4245649525       60.5914075241        1.3065650000  MEMB      21              0.0000000000
      1548        21  CHL1      H26A          -58.8740354486       61.5760589100        1.5570650000  MEMB      21              0.0000000000
      1549        21  CHL1      H26B          -57.3381621785       60.7955964785        1.4177050000  MEMB      21              0.0000000000
      1550        21  CHL1      H26C          -58.7824638477       60.3101225341        0.2931050000  MEMB      21              0.0000000000
      1551        21  CHL1      C27           -58.4609315844       58.1273059947        1.8906850000  MEMB      21              0.0000000000
      1552        21  CHL1      H27A          -58.8253986190       57.7563836886        0.9089050000  MEMB      21              0.0000000000
      1553        21  CHL1      H27B          -57.3537461957       58.1752231138        1.9692250000  MEMB      21              0.0000000000
      1554        21  CHL1      H27C          -58.8964535022       57.4766281872        2.6788850000  MEMB      21              0.0000000000
      1555        22  CHL1      C3            -46.5322654202      -23.4862233058       17.3805850000  MEMB      22              0.0000000000
      1556        22  CHL1      H3            -47.6203824352      -23.7003787526       17.4473250000  MEMB      22              0.0000000000
      1557        22  CHL1      O3            -45.8986623798      -23.0447070942       18.6194150000  MEMB      22              0.0000000000
      1558        22  CHL1      H3'           -46.3230652233      -22.2256766743       18.8852450000  MEMB      22              0.0000000000
      1559        22  CHL1      C4            -45.8133975876      -24.7431231540       16.9483250000  MEMB      22              0.0000000000
      1560        22  CHL1      H4A           -44.7079236202      -24.6457690924       16.8955850000  MEMB      22              0.0000000000
      1561        22  CHL1      H4B           -45.9539530495      -25.5084930951       17.7412750000  MEMB      22              0.0000000000
      1562        22  CHL1      C5            -46.3619263169      -25.1941409920       15.6205250000  MEMB      22              0.0000000000
      1563        22  CHL1      C6            -46.8671120639      -26.4225161995       15.4660550000  MEMB      22              0.0000000000
      1564        22  CHL1      H6            -46.8149291076      -27.1237677259       16.3119350000  MEMB      22              0.0000000000
      1565        22  CHL1      C7            -47.3816563172      -26.9912890798       14.1549550000  MEMB      22              0.0000000000
      1566        22  CHL1      H7A           -47.1771191706      -28.0625498408       13.9431250000  MEMB      22              0.0000000000
      1567        22  CHL1      H7B           -48.4760280588      -26.8471490740       14.0288250000  MEMB      22              0.0000000000
      1568        22  CHL1      C8            -46.8127631120      -26.2159315848       12.9525050000  MEMB      22              0.0000000000
      1569        22  CHL1      H8            -45.7346016664      -26.4772792153       12.8925650000  MEMB      22              0.0000000000
      1570        22  CHL1      C14           -47.4936064535      -26.5956696340       11.6209150000  MEMB      22              0.0000000000
      1571        22  CHL1      H14           -48.5777704622      -26.3532400830       11.6326750000  MEMB      22              0.0000000000
      1572        22  CHL1      C15           -47.5198099911      -28.0721512754       11.2535150000  MEMB      22              0.0000000000
      1573        22  CHL1      H15A          -46.5256662658      -28.5680253707       11.2431050000  MEMB      22              0.0000000000
      1574        22  CHL1      H15B          -48.2229409191      -28.6385448589       11.9009250000  MEMB      22              0.0000000000
      1575        22  CHL1      C16           -48.0596621812      -28.0328291568        9.8015250000  MEMB      22              0.0000000000
      1576        22  CHL1      H16A          -47.6309938603      -28.8400319227        9.1698750000  MEMB      22              0.0000000000
      1577        22  CHL1      H16B          -49.1669086809      -27.9922275700        9.7197950000  MEMB      22              0.0000000000
      1578        22  CHL1      C17           -47.7996319385      -26.5461444378        9.2927750000  MEMB      22              0.0000000000
      1579        22  CHL1      H17           -48.7865429513      -26.0370940163        9.3271850000  MEMB      22              0.0000000000
      1580        22  CHL1      C13           -47.0137390049      -25.8243046252       10.4015550000  MEMB      22              0.0000000000
      1581        22  CHL1      C18           -45.5058071586      -26.1565223390       10.1427450000  MEMB      22              0.0000000000
      1582        22  CHL1      H18A          -45.3486399219      -27.2377177936        9.9411250000  MEMB      22              0.0000000000
      1583        22  CHL1      H18B          -45.0069503437      -25.5848562296        9.3311750000  MEMB      22              0.0000000000
      1584        22  CHL1      H18C          -44.8633688540      -25.9551086184       11.0265050000  MEMB      22              0.0000000000
      1585        22  CHL1      C12           -47.3635369589      -24.3616992970       10.6175450000  MEMB      22              0.0000000000
      1586        22  CHL1      H12A          -47.1730291624      -23.6894282107        9.7537850000  MEMB      22              0.0000000000
      1587        22  CHL1      H12B          -48.4395085543      -24.1933584912       10.8372550000  MEMB      22              0.0000000000
      1588        22  CHL1      C11           -46.6018180947      -23.8355165120       11.9133650000  MEMB      22              0.0000000000
      1589        22  CHL1      H11A          -45.5118916461      -23.9088375721       11.7109150000  MEMB      22              0.0000000000
      1590        22  CHL1      H11B          -46.8021352579      -22.7484577530       12.0250950000  MEMB      22              0.0000000000
      1591        22  CHL1      C9            -46.9992967520      -24.7227039071       13.1729050000  MEMB      22              0.0000000000
      1592        22  CHL1      H9            -48.0775380732      -24.5634128110       13.3881650000  MEMB      22              0.0000000000
      1593        22  CHL1      C10           -46.2600755105      -24.1358143419       14.4576450000  MEMB      22              0.0000000000
      1594        22  CHL1      C19           -44.7322458818      -23.9628768333       14.1807950000  MEMB      22              0.0000000000
      1595        22  CHL1      H19A          -44.2191270777      -23.7543702431       15.1438950000  MEMB      22              0.0000000000
      1596        22  CHL1      H19B          -44.3668285296      -24.9299863143       13.7739850000  MEMB      22              0.0000000000
      1597        22  CHL1      H19C          -44.5241551057      -23.2789531237       13.3303450000  MEMB      22              0.0000000000
      1598        22  CHL1      C1            -46.9881166364      -22.8828923935       14.9411150000  MEMB      22              0.0000000000
      1599        22  CHL1      H1A           -46.8937925870      -22.0781941597       14.1809250000  MEMB      22              0.0000000000
      1600        22  CHL1      H1B           -48.0898482791      -23.0058149828       15.0145550000  MEMB      22              0.0000000000
      1601        22  CHL1      C2            -46.4275739962      -22.3856587948       16.3179050000  MEMB      22              0.0000000000
      1602        22  CHL1      H2A           -47.0109990080      -21.5107026555       16.6762450000  MEMB      22              0.0000000000
      1603        22  CHL1      H2B           -45.3592236873      -22.1364104095       16.1423450000  MEMB      22              0.0000000000
      1604        22  CHL1      C20           -47.3771408576      -26.4327376519        7.8011850000  MEMB      22              0.0000000000
      1605        22  CHL1      H20           -46.4092905634      -26.9543587855        7.6415550000  MEMB      22              0.0000000000
      1606        22  CHL1      C21           -47.0501477165      -25.0211491455        7.2913450000  MEMB      22              0.0000000000
      1607        22  CHL1      H21A          -47.8820906589      -24.3204918619        7.5177650000  MEMB      22              0.0000000000
      1608        22  CHL1      H21B          -47.0096207141      -25.0572425337        6.1816750000  MEMB      22              0.0000000000
      1609        22  CHL1      H21C          -46.0758780606      -24.7157672369        7.7293750000  MEMB      22              0.0000000000
      1610        22  CHL1      C22           -48.3535881412      -27.0764333741        6.8602750000  MEMB      22              0.0000000000
      1611        22  CHL1      H22A          -48.8637118575      -27.9531838598        7.3134750000  MEMB      22              0.0000000000
      1612        22  CHL1      H22B          -49.1627637015      -26.3814347488        6.5495750000  MEMB      22              0.0000000000
      1613        22  CHL1      C23           -47.6800907972      -27.7124534938        5.6400050000  MEMB      22              0.0000000000
      1614        22  CHL1      H23A          -47.0333228125      -26.9991447959        5.0857550000  MEMB      22              0.0000000000
      1615        22  CHL1      H23B          -46.9546049797      -28.4015556238        6.1228550000  MEMB      22              0.0000000000
      1616        22  CHL1      C24           -48.7380682285      -28.3936415700        4.7790250000  MEMB      22              0.0000000000
      1617        22  CHL1      H24A          -49.3448914646      -29.0409963206        5.4476250000  MEMB      22              0.0000000000
      1618        22  CHL1      H24B          -49.3832943372      -27.5577959180        4.4335150000  MEMB      22              0.0000000000
      1619        22  CHL1      C25           -48.3417625375      -29.1639325222        3.5417550000  MEMB      22              0.0000000000
      1620        22  CHL1      H25           -47.8080124961      -30.1204132922        3.7276950000  MEMB      22              0.0000000000
      1621        22  CHL1      C26           -49.4615299282      -29.3518191622        2.4985950000  MEMB      22              0.0000000000
      1622        22  CHL1      H26A          -49.7991222380      -28.3413872434        2.1833350000  MEMB      22              0.0000000000
      1623        22  CHL1      H26B          -48.9968217554      -29.8598620960        1.6266750000  MEMB      22              0.0000000000
      1624        22  CHL1      H26C          -50.3021892863      -29.9706513088        2.8789350000  MEMB      22              0.0000000000
      1625        22  CHL1      C27           -47.3299733850      -28.3801871302        2.6543250000  MEMB      22              0.0000000000
      1626        22  CHL1      H27A          -47.2225217361      -28.8262166317        1.6424850000  MEMB      22              0.0000000000
      1627        22  CHL1      H27B          -47.6155693650      -27.3229998343        2.4669150000  MEMB      22              0.0000000000
      1628        22  CHL1      H27C          -46.3031265508      -28.3205071022        3.0742750000  MEMB      22              0.0000000000
      1629        23  CHL1      C3             27.6201785252      -27.3958689167       17.2838550000  MEMB      23              0.0000000000
      1630        23  CHL1      H3             28.1572911125      -26.4350911884       17.1330950000  MEMB      23              0.0000000000
      1631        23  CHL1      O3             27.3994976748      -27.5776034833       18.7161450000  MEMB      23              0.0000000000
      1632        23  CHL1      H3'            27.2219792098      -28.4963285769       18.9306750000  MEMB      23              0.0000000000
      1633        23  CHL1      C4             26.2782142360      -27.4091328062       16.5844450000  MEMB      23              0.0000000000
      1634        23  CHL1      H4A            25.7618883362      -28.2900663354       17.0222750000  MEMB      23              0.0000000000
      1635        23  CHL1      H4B            25.6098865780      -26.6408890047       17.0288050000  MEMB      23              0.0000000000
      1636        23  CHL1      C5             26.3184112744      -27.2846131186       15.0534150000  MEMB      23              0.0000000000
      1637        23  CHL1      C6             25.7220889067      -26.3671458623       14.2046650000  MEMB      23              0.0000000000
      1638        23  CHL1      H6             25.1170581611      -25.6045636236       14.7169150000  MEMB      23              0.0000000000
      1639        23  CHL1      C7             25.7262178903      -26.4808473121       12.6739650000  MEMB      23              0.0000000000
      1640        23  CHL1      H7A            24.7676616417      -26.3862721192       12.1203050000  MEMB      23              0.0000000000
      1641        23  CHL1      H7B            26.5053603620      -25.7770401969       12.3107650000  MEMB      23              0.0000000000
      1642        23  CHL1      C8             26.2018742538      -27.8944553770       12.1629950000  MEMB      23              0.0000000000
      1643        23  CHL1      H8             25.3088443084      -28.5397939423       12.3057150000  MEMB      23              0.0000000000
      1644        23  CHL1      C14            26.4918032091      -27.7782901238       10.6611050000  MEMB      23              0.0000000000
      1645        23  CHL1      H14            27.2751496077      -26.9920982284       10.6101150000  MEMB      23              0.0000000000
      1646        23  CHL1      C15            25.3815888570      -27.3689430513        9.6773550000  MEMB      23              0.0000000000
      1647        23  CHL1      H15A           24.4684973840      -27.9710320663        9.8724450000  MEMB      23              0.0000000000
      1648        23  CHL1      H15B           25.1493502479      -26.2993075008        9.8677850000  MEMB      23              0.0000000000
      1649        23  CHL1      C16            25.9584390707      -27.5706254269        8.3375950000  MEMB      23              0.0000000000
      1650        23  CHL1      H16A           25.2904170023      -27.9157010520        7.5196750000  MEMB      23              0.0000000000
      1651        23  CHL1      H16B           26.4133270068      -26.5982876274        8.0512950000  MEMB      23              0.0000000000
      1652        23  CHL1      C17            27.1438808993      -28.5776788566        8.5312350000  MEMB      23              0.0000000000
      1653        23  CHL1      H17            27.9911575239      -27.8597252753        8.5623350000  MEMB      23              0.0000000000
      1654        23  CHL1      C13            27.0676652863      -29.0797143425        9.9561950000  MEMB      23              0.0000000000
      1655        23  CHL1      C18            26.0610189191      -30.1675660492       10.0546150000  MEMB      23              0.0000000000
      1656        23  CHL1      H18A           25.7620853869      -30.3641537470       11.1064250000  MEMB      23              0.0000000000
      1657        23  CHL1      H18B           25.0817005584      -30.0901219890        9.5357150000  MEMB      23              0.0000000000
      1658        23  CHL1      H18C           26.5838598173      -31.0430352419        9.6135950000  MEMB      23              0.0000000000
      1659        23  CHL1      C12            28.4040558300      -29.4393689924       10.6841350000  MEMB      23              0.0000000000
      1660        23  CHL1      H12A           28.8732455915      -30.3942622794       10.3642150000  MEMB      23              0.0000000000
      1661        23  CHL1      H12B           29.1800417687      -28.6605749097       10.5239550000  MEMB      23              0.0000000000
      1662        23  CHL1      C11            28.1819159592      -29.5757998621       12.2213550000  MEMB      23              0.0000000000
      1663        23  CHL1      H11A           27.5808102396      -30.4810936655       12.4525050000  MEMB      23              0.0000000000
      1664        23  CHL1      H11B           29.1294605916      -29.6846381685       12.7911250000  MEMB      23              0.0000000000
      1665        23  CHL1      C9             27.4510825790      -28.4231542095       12.9203950000  MEMB      23              0.0000000000
      1666        23  CHL1      H9             28.1457851454      -27.5701125855       12.7653950000  MEMB      23              0.0000000000
      1667        23  CHL1      C10            27.1261998017      -28.4998678819       14.4810350000  MEMB      23              0.0000000000
      1668        23  CHL1      C19            26.3743646460      -29.8434562755       14.7531050000  MEMB      23              0.0000000000
      1669        23  CHL1      H19A           27.1499774309      -30.6388983147       14.7553350000  MEMB      23              0.0000000000
      1670        23  CHL1      H19B           25.8845831515      -29.9268149414       15.7468250000  MEMB      23              0.0000000000
      1671        23  CHL1      H19C           25.6033224616      -30.1718761902       14.0237550000  MEMB      23              0.0000000000
      1672        23  CHL1      C1             28.5749379971      -28.5509417462       15.2712450000  MEMB      23              0.0000000000
      1673        23  CHL1      H1A            29.0048685031      -29.5192426486       14.9367750000  MEMB      23              0.0000000000
      1674        23  CHL1      H1B            29.2266504333      -27.7116165651       14.9470050000  MEMB      23              0.0000000000
      1675        23  CHL1      C2             28.4469763475      -28.5812451659       16.7811250000  MEMB      23              0.0000000000
      1676        23  CHL1      H2A            29.4308994494      -28.4652799219       17.2838750000  MEMB      23              0.0000000000
      1677        23  CHL1      H2B            27.9192057612      -29.4876385783       17.1474850000  MEMB      23              0.0000000000
      1678        23  CHL1      C20            27.1989018207      -29.5064597347        7.2971650000  MEMB      23              0.0000000000
      1679        23  CHL1      H20            26.2715327331      -30.1029126231        7.1609750000  MEMB      23              0.0000000000
      1680        23  CHL1      C21            28.3502482397      -30.5742276661        7.3628050000  MEMB      23              0.0000000000
      1681        23  CHL1      H21A           28.2521157324      -31.3116004977        8.1880150000  MEMB      23              0.0000000000
      1682        23  CHL1      H21B           29.2553903267      -30.0551631473        7.7443750000  MEMB      23              0.0000000000
      1683        23  CHL1      H21C           28.5731425850      -30.9804697050        6.3530450000  MEMB      23              0.0000000000
      1684        23  CHL1      C22            27.4223306190      -28.6323365771        6.0259850000  MEMB      23              0.0000000000
      1685        23  CHL1      H22A           26.9350891158      -27.6362222515        6.0943450000  MEMB      23              0.0000000000
      1686        23  CHL1      H22B           28.4813673430      -28.2986766049        5.9882550000  MEMB      23              0.0000000000
      1687        23  CHL1      C23            26.9530735519      -29.3246751494        4.6840850000  MEMB      23              0.0000000000
      1688        23  CHL1      H23A           27.5399070715      -30.2583070913        4.5488950000  MEMB      23              0.0000000000
      1689        23  CHL1      H23B           25.8807617095      -29.6094119876        4.6258350000  MEMB      23              0.0000000000
      1690        23  CHL1      C24            27.2578188902      -28.3342139171        3.5316550000  MEMB      23              0.0000000000
      1691        23  CHL1      H24A           26.4023079441      -27.6257686199        3.5546950000  MEMB      23              0.0000000000
      1692        23  CHL1      H24B           28.2394354015      -27.8315012219        3.6659050000  MEMB      23              0.0000000000
      1693        23  CHL1      C25            27.2848452304      -29.0434647965        2.1754050000  MEMB      23              0.0000000000
      1694        23  CHL1      H25            26.2486538645      -29.3209366381        1.8862050000  MEMB      23              0.0000000000
      1695        23  CHL1      C26            27.7881546237      -28.0631451497        1.0904650000  MEMB      23              0.0000000000
      1696        23  CHL1      H26A           28.5580086789      -27.3934725819        1.5299850000  MEMB      23              0.0000000000
      1697        23  CHL1      H26B           28.1145363380      -28.4752979386        0.1117250000  MEMB      23              0.0000000000
      1698        23  CHL1      H26C           26.9499977450      -27.4212666532        0.7443550000  MEMB      23              0.0000000000
      1699        23  CHL1      C27            28.1464674132      -30.3417161551        2.2110950000  MEMB      23              0.0000000000
      1700        23  CHL1      H27A           27.5757439058      -31.0662941955        2.8304350000  MEMB      23              0.0000000000
      1701        23  CHL1      H27B           28.2328469207      -30.9195875783        1.2661450000  MEMB      23              0.0000000000
      1702        23  CHL1      H27C           29.1256512450      -30.0898295975        2.6716150000  MEMB      23              0.0000000000
      1703        24  CHL1      C3             32.2313626845      -21.0192179859       17.3514700000  MEMB      24              0.0000000000
      1704        24  CHL1      H3             31.2362878379      -21.4698353013       17.5541800000  MEMB      24              0.0000000000
      1705        24  CHL1      O3             32.8063877155      -20.6909062141       18.6485300000  MEMB      24              0.0000000000
      1706        24  CHL1      H3'            32.1145682489      -20.1783930218       19.0731700000  MEMB      24              0.0000000000
      1707        24  CHL1      C4             33.2642230187      -22.0051060182       16.7994100000  MEMB      24              0.0000000000
      1708        24  CHL1      H4A            34.3189391610      -21.6611458242       16.8595300000  MEMB      24              0.0000000000
      1709        24  CHL1      H4B            33.2218944485      -22.8962186814       17.4615700000  MEMB      24              0.0000000000
      1710        24  CHL1      C5             32.7518935017      -22.4152368650       15.3704100000  MEMB      24              0.0000000000
      1711        24  CHL1      C6             32.6924767361      -23.7162450468       15.0413000000  MEMB      24              0.0000000000
      1712        24  CHL1      H6             32.9858497527      -24.5046882959       15.7500200000  MEMB      24              0.0000000000
      1713        24  CHL1      C7             32.1824778954      -24.1818019755       13.6899200000  MEMB      24              0.0000000000
      1714        24  CHL1      H7A            32.6541475805      -25.1187418367       13.3238900000  MEMB      24              0.0000000000
      1715        24  CHL1      H7B            31.1122469169      -24.3900449621       13.9033800000  MEMB      24              0.0000000000
      1716        24  CHL1      C8             32.2329162639      -22.9645273121       12.6890800000  MEMB      24              0.0000000000
      1717        24  CHL1      H8             33.3089384400      -22.6937982107       12.6325600000  MEMB      24              0.0000000000
      1718        24  CHL1      C14            31.6888022788      -23.3700208657       11.3601500000  MEMB      24              0.0000000000
      1719        24  CHL1      H14            30.6127588628      -23.5477513620       11.5719500000  MEMB      24              0.0000000000
      1720        24  CHL1      C15            32.1983971599      -24.7339822746       10.6976500000  MEMB      24              0.0000000000
      1721        24  CHL1      H15A           33.3062083324      -24.6509288323       10.7112100000  MEMB      24              0.0000000000
      1722        24  CHL1      H15B           31.8130591669      -25.6055257960       11.2688300000  MEMB      24              0.0000000000
      1723        24  CHL1      C16            31.7869335089      -24.5100843516        9.2337700000  MEMB      24              0.0000000000
      1724        24  CHL1      H16A           32.6615454581      -24.6087414105        8.5558000000  MEMB      24              0.0000000000
      1725        24  CHL1      H16B           30.9554685995      -25.2049741817        8.9885600000  MEMB      24              0.0000000000
      1726        24  CHL1      C17            31.1888013331      -23.0962918085        9.0404800000  MEMB      24              0.0000000000
      1727        24  CHL1      H17            30.1109468595      -23.3037012345        9.2123600000  MEMB      24              0.0000000000
      1728        24  CHL1      C13            31.7590480927      -22.3047937344       10.2651500000  MEMB      24              0.0000000000
      1729        24  CHL1      C18            33.2440088237      -21.9233714917        9.9712000000  MEMB      24              0.0000000000
      1730        24  CHL1      H18A           33.3287501284      -21.1212953376        9.2071200000  MEMB      24              0.0000000000
      1731        24  CHL1      H18B           33.6593663508      -21.5739516262       10.9405800000  MEMB      24              0.0000000000
      1732        24  CHL1      H18C           33.7765693575      -22.7663137729        9.4811600000  MEMB      24              0.0000000000
      1733        24  CHL1      C12            30.8894495001      -21.1342224657       10.7498400000  MEMB      24              0.0000000000
      1734        24  CHL1      H12A           31.0068024126      -20.3619598226        9.9597900000  MEMB      24              0.0000000000
      1735        24  CHL1      H12B           29.8297562719      -21.4674974027       10.7326100000  MEMB      24              0.0000000000
      1736        24  CHL1      C11            31.3599231907      -20.5792341140       12.1340200000  MEMB      24              0.0000000000
      1737        24  CHL1      H11A           32.3549163466      -20.1615769310       11.8696700000  MEMB      24              0.0000000000
      1738        24  CHL1      H11B           30.6081755911      -19.8079646135       12.4066600000  MEMB      24              0.0000000000
      1739        24  CHL1      C9             31.4995898428      -21.7511762843       13.1796900000  MEMB      24              0.0000000000
      1740        24  CHL1      H9             30.4615412401      -22.0449397649       13.4451900000  MEMB      24              0.0000000000
      1741        24  CHL1      C10            32.2264782573      -21.2039912331       14.4756600000  MEMB      24              0.0000000000
      1742        24  CHL1      C19            33.5046391720      -20.4964124867       14.0634500000  MEMB      24              0.0000000000
      1743        24  CHL1      H19A           33.2258227191      -19.5001309806       13.6584700000  MEMB      24              0.0000000000
      1744        24  CHL1      H19B           34.1384898119      -20.2609721353       14.9450100000  MEMB      24              0.0000000000
      1745        24  CHL1      H19C           34.1183542229      -21.0239393745       13.3022700000  MEMB      24              0.0000000000
      1746        24  CHL1      C1             31.4523671468      -20.1168681864       15.2377000000  MEMB      24              0.0000000000
      1747        24  CHL1      H1A            31.4672346736      -19.1924485631       14.6216300000  MEMB      24              0.0000000000
      1748        24  CHL1      H1B            30.4433467900      -20.5597178929       15.3794000000  MEMB      24              0.0000000000
      1749        24  CHL1      C2             32.0946696253      -19.7424633214       16.5285900000  MEMB      24              0.0000000000
      1750        24  CHL1      H2A            31.4510645661      -18.9608738516       16.9859900000  MEMB      24              0.0000000000
      1751        24  CHL1      H2B            33.1033199240      -19.3033198067       16.3734000000  MEMB      24              0.0000000000
      1752        24  CHL1      C20            31.4245166259      -22.6247531522        7.6131200000  MEMB      24              0.0000000000
      1753        24  CHL1      H20            32.4743263043      -22.3628695336        7.3608600000  MEMB      24              0.0000000000
      1754        24  CHL1      C21            30.6521842424      -21.3105692216        7.3081300000  MEMB      24              0.0000000000
      1755        24  CHL1      H21A           30.9547635160      -20.9568387592        6.2993500000  MEMB      24              0.0000000000
      1756        24  CHL1      H21B           31.0622803603      -20.5987564394        8.0561000000  MEMB      24              0.0000000000
      1757        24  CHL1      H21C           29.5444389443      -21.3915571952        7.2822300000  MEMB      24              0.0000000000
      1758        24  CHL1      C22            31.0720832099      -23.7945297082        6.6042300000  MEMB      24              0.0000000000
      1759        24  CHL1      H22A           31.7595527137      -24.6537117614        6.7575600000  MEMB      24              0.0000000000
      1760        24  CHL1      H22B           30.0291307403      -24.1562935255        6.7295200000  MEMB      24              0.0000000000
      1761        24  CHL1      C23            31.0661014805      -23.3401086434        5.1622400000  MEMB      24              0.0000000000
      1762        24  CHL1      H23A           30.8062927897      -24.2469961881        4.5754000000  MEMB      24              0.0000000000
      1763        24  CHL1      H23B           30.2208959390      -22.6681788333        4.9005700000  MEMB      24              0.0000000000
      1764        24  CHL1      C24            32.3636196481      -22.6493907914        4.7436800000  MEMB      24              0.0000000000
      1765        24  CHL1      H24A           32.6660435015      -21.7585613699        5.3346900000  MEMB      24              0.0000000000
      1766        24  CHL1      H24B           33.1451792677      -23.4168455884        4.9294000000  MEMB      24              0.0000000000
      1767        24  CHL1      C25            32.5390778615      -22.3399318194        3.2265200000  MEMB      24              0.0000000000
      1768        24  CHL1      H25            32.4574805679      -23.3035963941        2.6797100000  MEMB      24              0.0000000000
      1769        24  CHL1      C26            31.4557963685      -21.3509488165        2.7147600000  MEMB      24              0.0000000000
      1770        24  CHL1      H26A           31.8202850436      -20.3761241141        3.1035900000  MEMB      24              0.0000000000
      1771        24  CHL1      H26B           31.6238967316      -21.3506327209        1.6165500000  MEMB      24              0.0000000000
      1772        24  CHL1      H26C           30.4203654581      -21.6363712548        2.9988900000  MEMB      24              0.0000000000
      1773        24  CHL1      C27            33.8791542311      -21.6769359559        2.9303000000  MEMB      24              0.0000000000
      1774        24  CHL1      H27A           33.9327037008      -20.6112560643        3.2397900000  MEMB      24              0.0000000000
      1775        24  CHL1      H27B           34.6355657797      -22.2534995365        3.5045300000  MEMB      24              0.0000000000
      1776        24  CHL1      H27C           34.2195526058      -21.8466124864        1.8864300000  MEMB      24              0.0000000000
      1777        25  CHL1      C3            -46.7473365227       16.0965317895       17.3116950000  MEMB      25              0.0000000000
      1778        25  CHL1      H3            -45.9555859197       15.3601431805       17.0563850000  MEMB      25              0.0000000000
      1779        25  CHL1      O3            -46.8953190773       15.8917316105       18.6883050000  MEMB      25              0.0000000000
      1780        25  CHL1      H3'           -46.5368750689       15.0278930954       18.9048650000  MEMB      25              0.0000000000
      1781        25  CHL1      C4            -46.2809020673       17.5507477311       16.9807050000  MEMB      25              0.0000000000
      1782        25  CHL1      H4A           -47.0417745928       18.1976764154       17.4674150000  MEMB      25              0.0000000000
      1783        25  CHL1      H4B           -45.2973514458       17.8185999587       17.4225150000  MEMB      25              0.0000000000
      1784        25  CHL1      C5            -46.2148786875       17.7566043915       15.4866750000  MEMB      25              0.0000000000
      1785        25  CHL1      C6            -45.0552043067       18.1964099427       14.9673350000  MEMB      25              0.0000000000
      1786        25  CHL1      H6            -44.1396220619       18.2133935006       15.5767750000  MEMB      25              0.0000000000
      1787        25  CHL1      C7            -44.9521142814       18.6000804757       13.5358150000  MEMB      25              0.0000000000
      1788        25  CHL1      H7A           -44.5746961408       19.6444806771       13.5027350000  MEMB      25              0.0000000000
      1789        25  CHL1      H7B           -44.2115650197       18.0465534046       12.9197650000  MEMB      25              0.0000000000
      1790        25  CHL1      C8            -46.2006994169       18.5198240000       12.6653450000  MEMB      25              0.0000000000
      1791        25  CHL1      H8            -46.7554695599       19.4571323422       12.8844450000  MEMB      25              0.0000000000
      1792        25  CHL1      C14           -45.9568398417       18.3766142602       11.1927150000  MEMB      25              0.0000000000
      1793        25  CHL1      H14           -45.6264375213       17.3206728658       11.0920250000  MEMB      25              0.0000000000
      1794        25  CHL1      C15           -44.7661165969       19.1749403370       10.5765750000  MEMB      25              0.0000000000
      1795        25  CHL1      H15A          -44.7817791344       20.2099593609       10.9800750000  MEMB      25              0.0000000000
      1796        25  CHL1      H15B          -43.7478228382       18.7677710730       10.7543650000  MEMB      25              0.0000000000
      1797        25  CHL1      C16           -45.1253603540       19.2114961998        9.0871450000  MEMB      25              0.0000000000
      1798        25  CHL1      H16A          -45.4088408498       20.2806143796        8.9825150000  MEMB      25              0.0000000000
      1799        25  CHL1      H16B          -44.3832358196       18.7754151653        8.3847150000  MEMB      25              0.0000000000
      1800        25  CHL1      C17           -46.4383637114       18.4303491840        8.9234150000  MEMB      25              0.0000000000
      1801        25  CHL1      H17           -46.2332725439       17.3388244018        8.8945250000  MEMB      25              0.0000000000
      1802        25  CHL1      C13           -47.1005935417       18.5018445535       10.2923550000  MEMB      25              0.0000000000
      1803        25  CHL1      C18           -47.6871803325       19.9272204581       10.3822250000  MEMB      25              0.0000000000
      1804        25  CHL1      H18A          -48.5997039022       19.9323191512        9.7485150000  MEMB      25              0.0000000000
      1805        25  CHL1      H18B          -48.1176340910       20.2009873539       11.3691750000  MEMB      25              0.0000000000
      1806        25  CHL1      H18C          -46.9687380138       20.7272625968       10.1027950000  MEMB      25              0.0000000000
      1807        25  CHL1      C12           -48.1361258511       17.4059685274       10.6951150000  MEMB      25              0.0000000000
      1808        25  CHL1      H12A          -49.0682903607       17.5052167870       10.0988450000  MEMB      25              0.0000000000
      1809        25  CHL1      H12B          -47.5826722195       16.4706406391       10.4645250000  MEMB      25              0.0000000000
      1810        25  CHL1      C11           -48.4859765355       17.4782751269       12.1683450000  MEMB      25              0.0000000000
      1811        25  CHL1      H11A          -49.0963196680       18.3796511141       12.3904250000  MEMB      25              0.0000000000
      1812        25  CHL1      H11B          -49.1243229356       16.6316173061       12.5000250000  MEMB      25              0.0000000000
      1813        25  CHL1      C9            -47.2056745980       17.4634399339       13.0416850000  MEMB      25              0.0000000000
      1814        25  CHL1      H9            -46.7803222800       16.4482147875       12.8909650000  MEMB      25              0.0000000000
      1815        25  CHL1      C10           -47.4640124372       17.5130473955       14.6245350000  MEMB      25              0.0000000000
      1816        25  CHL1      C19           -48.4665133283       18.6539999451       15.0475650000  MEMB      25              0.0000000000
      1817        25  CHL1      H19A          -48.7330635387       18.4026293976       16.0964250000  MEMB      25              0.0000000000
      1818        25  CHL1      H19B          -47.9404393996       19.6325459199       15.0496850000  MEMB      25              0.0000000000
      1819        25  CHL1      H19C          -49.3946590417       18.6339117205       14.4372650000  MEMB      25              0.0000000000
      1820        25  CHL1      C1            -47.9479704650       16.0624055422       15.0775650000  MEMB      25              0.0000000000
      1821        25  CHL1      H1A           -48.9341553002       15.9291217203       14.5835950000  MEMB      25              0.0000000000
      1822        25  CHL1      H1B           -47.2863924263       15.2686013770       14.6695150000  MEMB      25              0.0000000000
      1823        25  CHL1      C2            -48.0800842675       15.7902467112       16.5902450000  MEMB      25              0.0000000000
      1824        25  CHL1      H2A           -48.4977055849       14.7989428521       16.8681550000  MEMB      25              0.0000000000
      1825        25  CHL1      H2B           -48.8246746558       16.4943605273       17.0193550000  MEMB      25              0.0000000000
      1826        25  CHL1      C20           -47.2767307403       18.6698484981        7.6263750000  MEMB      25              0.0000000000
      1827        25  CHL1      H20           -47.9896984399       19.5060034217        7.7902550000  MEMB      25              0.0000000000
      1828        25  CHL1      C21           -48.0756786423       17.4126078835        7.2190150000  MEMB      25              0.0000000000
      1829        25  CHL1      H21A          -48.5107540760       16.8592355739        8.0785550000  MEMB      25              0.0000000000
      1830        25  CHL1      H21B          -47.4830744593       16.6902613935        6.6178950000  MEMB      25              0.0000000000
      1831        25  CHL1      H21C          -48.9318486164       17.7274566504        6.5848450000  MEMB      25              0.0000000000
      1832        25  CHL1      C22           -46.4613974836       19.2732580511        6.3804950000  MEMB      25              0.0000000000
      1833        25  CHL1      H22A          -46.0999673587       20.2981135895        6.6114950000  MEMB      25              0.0000000000
      1834        25  CHL1      H22B          -45.5435313292       18.6878352160        6.1588450000  MEMB      25              0.0000000000
      1835        25  CHL1      C23           -47.3028163703       19.3425747617        5.0778750000  MEMB      25              0.0000000000
      1836        25  CHL1      H23A          -47.5793659721       18.3092828622        4.7776350000  MEMB      25              0.0000000000
      1837        25  CHL1      H23B          -48.1559000539       20.0338663361        5.2472650000  MEMB      25              0.0000000000
      1838        25  CHL1      C24           -46.5492890071       20.0901505754        3.8808450000  MEMB      25              0.0000000000
      1839        25  CHL1      H24A          -46.4563159144       21.1753442806        4.0999950000  MEMB      25              0.0000000000
      1840        25  CHL1      H24B          -45.5372060095       19.6381098623        3.9560950000  MEMB      25              0.0000000000
      1841        25  CHL1      C25           -47.0755090302       19.7398733261        2.4432550000  MEMB      25              0.0000000000
      1842        25  CHL1      H25           -46.3355250481       20.2178567458        1.7663050000  MEMB      25              0.0000000000
      1843        25  CHL1      C26           -47.0258268208       18.2657748557        2.1897750000  MEMB      25              0.0000000000
      1844        25  CHL1      H26A          -47.9622032067       17.8299153461        2.5990850000  MEMB      25              0.0000000000
      1845        25  CHL1      H26B          -47.0258030988       18.0382410245        1.1023250000  MEMB      25              0.0000000000
      1846        25  CHL1      H26C          -46.2504604390       17.7281684959        2.7763850000  MEMB      25              0.0000000000
      1847        25  CHL1      C27           -48.4384726790       20.3512872626        2.1693450000  MEMB      25              0.0000000000
      1848        25  CHL1      H27A          -48.9133582356       19.9918446952        1.2314750000  MEMB      25              0.0000000000
      1849        25  CHL1      H27B          -49.2069889890       20.1325643882        2.9412650000  MEMB      25              0.0000000000
      1850        25  CHL1      H27C          -48.3709633816       21.4602398761        2.1679750000  MEMB      25              0.0000000000
      1851        26  CHL1      C3            -27.4353522050       57.6046970086       17.3691350000  MEMB      26              0.0000000000
      1852        26  CHL1      H3            -26.3346026017       57.4570802349       17.3985450000  MEMB      26              0.0000000000
      1853        26  CHL1      O3            -27.8991677950       58.1305439914       18.6308650000  MEMB      26              0.0000000000
      1854        26  CHL1      H3'           -27.6278837731       57.4732105965       19.2757850000  MEMB      26              0.0000000000
      1855        26  CHL1      C4            -27.8199128426       58.5293489940       16.2692350000  MEMB      26              0.0000000000
      1856        26  CHL1      H4A           -28.7898693804       59.0435687362       16.4397750000  MEMB      26              0.0000000000
      1857        26  CHL1      H4B           -27.0952890542       59.3068011776       16.5929950000  MEMB      26              0.0000000000
      1858        26  CHL1      C5            -27.5581431769       58.0022274739       14.9091250000  MEMB      26              0.0000000000
      1859        26  CHL1      C6            -26.8199536306       58.6870169325       14.0217150000  MEMB      26              0.0000000000
      1860        26  CHL1      H6            -26.4486530469       59.6955949234       14.2560450000  MEMB      26              0.0000000000
      1861        26  CHL1      C7            -26.6144361453       58.3311926836       12.6286650000  MEMB      26              0.0000000000
      1862        26  CHL1      H7A           -26.7311836016       59.2340863578       11.9918950000  MEMB      26              0.0000000000
      1863        26  CHL1      H7B           -25.5959607016       57.8897937280       12.5818350000  MEMB      26              0.0000000000
      1864        26  CHL1      C8            -27.5421380768       57.2111622030       12.1562350000  MEMB      26              0.0000000000
      1865        26  CHL1      H8            -28.5425454244       57.6796210385       12.0377750000  MEMB      26              0.0000000000
      1866        26  CHL1      C14           -27.1604840023       56.5461740324       10.8477150000  MEMB      26              0.0000000000
      1867        26  CHL1      H14           -26.1456541921       56.1515366610       11.0684050000  MEMB      26              0.0000000000
      1868        26  CHL1      C15           -26.9212469670       57.5116153604        9.6830250000  MEMB      26              0.0000000000
      1869        26  CHL1      H15A          -27.6934855187       58.3098046117        9.7125350000  MEMB      26              0.0000000000
      1870        26  CHL1      H15B          -25.9189705621       57.9442494460        9.8894050000  MEMB      26              0.0000000000
      1871        26  CHL1      C16           -26.9745937699       56.6636458108        8.4225150000  MEMB      26              0.0000000000
      1872        26  CHL1      H16A          -27.7768401243       57.0709985119        7.7707650000  MEMB      26              0.0000000000
      1873        26  CHL1      H16B          -26.0331734558       56.7676948651        7.8418050000  MEMB      26              0.0000000000
      1874        26  CHL1      C17           -27.3751642538       55.1848854746        8.9008050000  MEMB      26              0.0000000000
      1875        26  CHL1      H17           -26.3996972936       54.6754498983        9.0533150000  MEMB      26              0.0000000000
      1876        26  CHL1      C13           -28.0271971357       55.4416887181       10.2757450000  MEMB      26              0.0000000000
      1877        26  CHL1      C18           -29.4482843170       56.0094477889        9.9261950000  MEMB      26              0.0000000000
      1878        26  CHL1      H18A          -30.1680849172       55.2325248084        9.5906350000  MEMB      26              0.0000000000
      1879        26  CHL1      H18B          -29.9389714700       56.5521344392       10.7622850000  MEMB      26              0.0000000000
      1880        26  CHL1      H18C          -29.4592786206       56.7324193302        9.0826850000  MEMB      26              0.0000000000
      1881        26  CHL1      C12           -27.8720084586       54.2580131752       11.2864450000  MEMB      26              0.0000000000
      1882        26  CHL1      H12A          -28.5754524413       53.4180579809       11.1021150000  MEMB      26              0.0000000000
      1883        26  CHL1      H12B          -26.8409606666       53.8442440614       11.2797250000  MEMB      26              0.0000000000
      1884        26  CHL1      C11           -28.3222979414       54.7219036818       12.6668550000  MEMB      26              0.0000000000
      1885        26  CHL1      H11A          -29.3629504466       55.0599191588       12.4742650000  MEMB      26              0.0000000000
      1886        26  CHL1      H11B          -28.1714723371       53.9966462999       13.4948550000  MEMB      26              0.0000000000
      1887        26  CHL1      C9            -27.6428725063       56.0753429504       13.1948650000  MEMB      26              0.0000000000
      1888        26  CHL1      H9            -26.5908323579       55.7420837831       13.3232450000  MEMB      26              0.0000000000
      1889        26  CHL1      C10           -28.2113291936       56.6310024970       14.5698250000  MEMB      26              0.0000000000
      1890        26  CHL1      C19           -29.7342886101       56.9696211181       14.4405750000  MEMB      26              0.0000000000
      1891        26  CHL1      H19A          -29.9852922548       57.6952102035       13.6375550000  MEMB      26              0.0000000000
      1892        26  CHL1      H19B          -30.4561996549       56.2164539900       14.0586150000  MEMB      26              0.0000000000
      1893        26  CHL1      H19C          -30.1106659805       57.3073214661       15.4298250000  MEMB      26              0.0000000000
      1894        26  CHL1      C1            -27.9547589582       55.6892753909       15.7032150000  MEMB      26              0.0000000000
      1895        26  CHL1      H1A           -28.6089417891       54.7918813750       15.6709050000  MEMB      26              0.0000000000
      1896        26  CHL1      H1B           -26.8746069187       55.4380797233       15.6360950000  MEMB      26              0.0000000000
      1897        26  CHL1      C2            -28.2128798026       56.3390198623       17.0829650000  MEMB      26              0.0000000000
      1898        26  CHL1      H2A           -27.9538817077       55.6219153491       17.8910550000  MEMB      26              0.0000000000
      1899        26  CHL1      H2B           -29.2754543047       56.6413158145       17.2007950000  MEMB      26              0.0000000000
      1900        26  CHL1      C20           -28.0927289053       54.3462410105        7.8559850000  MEMB      26              0.0000000000
      1901        26  CHL1      H20           -29.0984591943       54.7867600036        7.6863750000  MEMB      26              0.0000000000
      1902        26  CHL1      C21           -28.5079000169       52.9797059667        8.2974550000  MEMB      26              0.0000000000
      1903        26  CHL1      H21A          -28.8026263250       52.3912699809        7.4023550000  MEMB      26              0.0000000000
      1904        26  CHL1      H21B          -29.3795960589       53.0629836912        8.9812250000  MEMB      26              0.0000000000
      1905        26  CHL1      H21C          -27.6499714551       52.4859430349        8.8019150000  MEMB      26              0.0000000000
      1906        26  CHL1      C22           -27.4497655200       54.4486652189        6.3448950000  MEMB      26              0.0000000000
      1907        26  CHL1      H22A          -27.6478687239       55.4877543849        6.0052350000  MEMB      26              0.0000000000
      1908        26  CHL1      H22B          -26.3612100143       54.2418338044        6.2637650000  MEMB      26              0.0000000000
      1909        26  CHL1      C23           -28.2154032829       53.7230258752        5.1526650000  MEMB      26              0.0000000000
      1910        26  CHL1      H23A          -27.8961650858       52.6636252927        5.0522550000  MEMB      26              0.0000000000
      1911        26  CHL1      H23B          -29.2324723526       53.8763853234        5.5726450000  MEMB      26              0.0000000000
      1912        26  CHL1      C24           -27.9843473042       54.4645837460        3.7649450000  MEMB      26              0.0000000000
      1913        26  CHL1      H24A          -28.4018191379       55.4849889296        3.9020950000  MEMB      26              0.0000000000
      1914        26  CHL1      H24B          -26.8973061609       54.5900664235        3.5728150000  MEMB      26              0.0000000000
      1915        26  CHL1      C25           -28.7327578472       53.8314394666        2.5781050000  MEMB      26              0.0000000000
      1916        26  CHL1      H25           -29.7724670156       53.8981271954        2.9639450000  MEMB      26              0.0000000000
      1917        26  CHL1      C26           -28.5961932288       54.6272117011        1.2987550000  MEMB      26              0.0000000000
      1918        26  CHL1      H26A          -29.2764114911       54.2053688955        0.5282550000  MEMB      26              0.0000000000
      1919        26  CHL1      H26B          -28.8880707706       55.6942339528        1.4017250000  MEMB      26              0.0000000000
      1920        26  CHL1      H26C          -27.5696779427       54.5842974085        0.8759850000  MEMB      26              0.0000000000
      1921        26  CHL1      C27           -28.4155452598       52.3259124452        2.2999050000  MEMB      26              0.0000000000
      1922        26  CHL1      H27A          -27.3620106752       52.2714597467        1.9514350000  MEMB      26              0.0000000000
      1923        26  CHL1      H27B          -28.4276013874       51.7158388920        3.2283450000  MEMB      26              0.0000000000
      1924        26  CHL1      H27C          -29.1788096824       51.9689733718        1.5757950000  MEMB      26              0.0000000000
      1925        27  CHL1      C3             20.9530380375      -57.5991926255       17.3176150000  MEMB      27              0.0000000000
      1926        27  CHL1      H3             20.1931652783      -58.3416003530       16.9924250000  MEMB      27              0.0000000000
      1927        27  CHL1      O3             20.8434631625      -57.7459221745       18.6823850000  MEMB      27              0.0000000000
      1928        27  CHL1      H3'            21.5783360804      -57.2598509952       19.0635450000  MEMB      27              0.0000000000
      1929        27  CHL1      C4             22.3491482557      -58.0373143981       16.8116250000  MEMB      27              0.0000000000
      1930        27  CHL1      H4A            23.1091865370      -57.4651073686       17.3854350000  MEMB      27              0.0000000000
      1931        27  CHL1      H4B            22.4218772695      -59.1093066542       17.0942350000  MEMB      27              0.0000000000
      1932        27  CHL1      C5             22.4296101362      -57.8859818018       15.2938250000  MEMB      27              0.0000000000
      1933        27  CHL1      C6             22.7475718970      -58.9019328022       14.4915650000  MEMB      27              0.0000000000
      1934        27  CHL1      H6             22.9583226650      -59.8820884410       14.9441950000  MEMB      27              0.0000000000
      1935        27  CHL1      C7             23.0117053083      -58.7993227147       13.0381050000  MEMB      27              0.0000000000
      1936        27  CHL1      H7A            23.9442917138      -59.3185208800       12.7298350000  MEMB      27              0.0000000000
      1937        27  CHL1      H7B            22.2364398519      -59.4223300625       12.5429850000  MEMB      27              0.0000000000
      1938        27  CHL1      C8             23.0412583247      -57.3583055499       12.5197750000  MEMB      27              0.0000000000
      1939        27  CHL1      H8             24.0352226657      -56.9097517981       12.7322850000  MEMB      27              0.0000000000
      1940        27  CHL1      C14            22.9788115897      -57.3384594270       11.0178550000  MEMB      27              0.0000000000
      1941        27  CHL1      H14            22.0584889776      -57.8866443399       10.7232050000  MEMB      27              0.0000000000
      1942        27  CHL1      C15            24.1013237563      -58.0694927928       10.3031150000  MEMB      27              0.0000000000
      1943        27  CHL1      H15A           25.1486692366      -57.9040109514       10.6347750000  MEMB      27              0.0000000000
      1944        27  CHL1      H15B           23.9097729435      -59.1609933364       10.3822950000  MEMB      27              0.0000000000
      1945        27  CHL1      C16            23.9386936592      -57.6608510273        8.7656650000  MEMB      27              0.0000000000
      1946        27  CHL1      H16A           24.8970976250      -57.2545804424        8.3774250000  MEMB      27              0.0000000000
      1947        27  CHL1      H16B           23.5740288812      -58.4944644809        8.1281450000  MEMB      27              0.0000000000
      1948        27  CHL1      C17            22.8028267125      -56.5336638843        8.8814650000  MEMB      27              0.0000000000
      1949        27  CHL1      H17            21.8278984514      -57.0521503106        8.7589550000  MEMB      27              0.0000000000
      1950        27  CHL1      C13            22.9495095818      -55.9836855455       10.3561650000  MEMB      27              0.0000000000
      1951        27  CHL1      C18            24.3185075385      -55.2351885258       10.5229850000  MEMB      27              0.0000000000
      1952        27  CHL1      H18A           25.2750917868      -55.6586544199       10.1489050000  MEMB      27              0.0000000000
      1953        27  CHL1      H18B           24.2621617209      -54.2433422202       10.0256150000  MEMB      27              0.0000000000
      1954        27  CHL1      H18C           24.3792450520      -54.9565912547       11.5967750000  MEMB      27              0.0000000000
      1955        27  CHL1      C12            21.8013425745      -55.1472052586       10.9267450000  MEMB      27              0.0000000000
      1956        27  CHL1      H12A           21.8098517767      -54.1014279749       10.5517650000  MEMB      27              0.0000000000
      1957        27  CHL1      H12B           20.8598064595      -55.7047418665       10.7344350000  MEMB      27              0.0000000000
      1958        27  CHL1      C11            21.9419027086      -55.1122222528       12.4908350000  MEMB      27              0.0000000000
      1959        27  CHL1      H11A           22.8997002756      -54.6024772977       12.7298450000  MEMB      27              0.0000000000
      1960        27  CHL1      H11B           21.1546665308      -54.5142280254       12.9977750000  MEMB      27              0.0000000000
      1961        27  CHL1      C9             21.9909871103      -56.4801479175       13.1820150000  MEMB      27              0.0000000000
      1962        27  CHL1      H9             20.9906345936      -56.9404013152       13.0344250000  MEMB      27              0.0000000000
      1963        27  CHL1      C10            22.1389158843      -56.4755110753       14.7495050000  MEMB      27              0.0000000000
      1964        27  CHL1      C19            23.1075056949      -55.3571102288       15.3171150000  MEMB      27              0.0000000000
      1965        27  CHL1      H19A           22.9205728776      -54.3378929076       14.9163950000  MEMB      27              0.0000000000
      1966        27  CHL1      H19B           22.9864778808      -55.2182886476       16.4127450000  MEMB      27              0.0000000000
      1967        27  CHL1      H19C           24.1659388984      -55.6213325513       15.1067950000  MEMB      27              0.0000000000
      1968        27  CHL1      C1             20.6946129568      -56.1121964398       15.2526150000  MEMB      27              0.0000000000
      1969        27  CHL1      H1A            20.3722748877      -55.1289025968       14.8481950000  MEMB      27              0.0000000000
      1970        27  CHL1      H1B            20.0366491848      -56.9436869160       14.9209050000  MEMB      27              0.0000000000
      1971        27  CHL1      C2             20.4731474336      -56.2362141294       16.8104550000  MEMB      27              0.0000000000
      1972        27  CHL1      H2A            19.3645083472      -56.1647781390       16.8215750000  MEMB      27              0.0000000000
      1973        27  CHL1      H2B            20.9415246800      -55.4136392033       17.3921050000  MEMB      27              0.0000000000
      1974        27  CHL1      C20            22.8448275383      -55.5310078267        7.6804350000  MEMB      27              0.0000000000
      1975        27  CHL1      H20            23.8425924952      -55.0450564557        7.6290850000  MEMB      27              0.0000000000
      1976        27  CHL1      C21            21.7937643411      -54.4178645316        7.7980050000  MEMB      27              0.0000000000
      1977        27  CHL1      H21A           21.7183305315      -53.8185865419        6.8655350000  MEMB      27              0.0000000000
      1978        27  CHL1      H21B           22.1475085523      -53.7358338804        8.6005150000  MEMB      27              0.0000000000
      1979        27  CHL1      H21C           20.7513856696      -54.7428587528        8.0032950000  MEMB      27              0.0000000000
      1980        27  CHL1      C22            22.7880371016      -56.3666335688        6.3596950000  MEMB      27              0.0000000000
      1981        27  CHL1      H22A           23.5723316618      -57.1485702475        6.2715050000  MEMB      27              0.0000000000
      1982        27  CHL1      H22B           21.7689508003      -56.8030949380        6.2869650000  MEMB      27              0.0000000000
      1983        27  CHL1      C23            22.9830482752      -55.5388617176        5.0461750000  MEMB      27              0.0000000000
      1984        27  CHL1      H23A           22.5943171540      -56.1302802474        4.1897650000  MEMB      27              0.0000000000
      1985        27  CHL1      H23B           22.1848928824      -54.7714834255        4.9544950000  MEMB      27              0.0000000000
      1986        27  CHL1      C24            24.3875980186      -55.0033907584        4.6520250000  MEMB      27              0.0000000000
      1987        27  CHL1      H24A           24.2532893700      -54.0981905069        4.0220250000  MEMB      27              0.0000000000
      1988        27  CHL1      H24B           24.9699091829      -54.8503514662        5.5857250000  MEMB      27              0.0000000000
      1989        27  CHL1      C25            25.2743399838      -55.8993848912        3.7725750000  MEMB      27              0.0000000000
      1990        27  CHL1      H25            25.3108354860      -56.8845219509        4.2849050000  MEMB      27              0.0000000000
      1991        27  CHL1      C26            24.8970069488      -55.9628734032        2.2872050000  MEMB      27              0.0000000000
      1992        27  CHL1      H26A           25.4467760649      -56.7486235542        1.7262550000  MEMB      27              0.0000000000
      1993        27  CHL1      H26B           23.8464003546      -56.2765943246        2.1079650000  MEMB      27              0.0000000000
      1994        27  CHL1      H26C           25.1551296386      -55.0925260965        1.6467450000  MEMB      27              0.0000000000
      1995        27  CHL1      C27            26.6830686591      -55.2406259905        3.6622450000  MEMB      27              0.0000000000
      1996        27  CHL1      H27A           27.3108427607      -55.7677808557        2.9123550000  MEMB      27              0.0000000000
      1997        27  CHL1      H27B           26.5770457194      -54.2562428697        3.1581950000  MEMB      27              0.0000000000
      1998        27  CHL1      H27C           27.1694089288      -55.1545073968        4.6574250000  MEMB      27              0.0000000000
      1999        28  CHL1      C3             40.6707929697      -23.3680747067       17.3722950000  MEMB      28              0.0000000000
      2000        28  CHL1      H3             41.3481995906      -22.7482757370       16.7467650000  MEMB      28              0.0000000000
      2001        28  CHL1      O3             40.7012310303      -22.8627894933       18.6277050000  MEMB      28              0.0000000000
      2002        28  CHL1      H3'            40.0092809011      -22.1973886705       18.6210750000  MEMB      28              0.0000000000
      2003        28  CHL1      C4             39.2414508567      -23.2072793957       16.8355550000  MEMB      28              0.0000000000
      2004        28  CHL1      H4A            38.6256195693      -23.9147266586       17.4310250000  MEMB      28              0.0000000000
      2005        28  CHL1      H4B            38.8216029661      -22.1955127444       17.0209650000  MEMB      28              0.0000000000
      2006        28  CHL1      C5             39.2658451587      -23.5123422457       15.3374750000  MEMB      28              0.0000000000
      2007        28  CHL1      C6             39.0439332908      -22.5329981902       14.4978450000  MEMB      28              0.0000000000
      2008        28  CHL1      H6             38.7218058021      -21.5431217205       14.8533350000  MEMB      28              0.0000000000
      2009        28  CHL1      C7             39.1028036531      -22.7406341662       12.9894850000  MEMB      28              0.0000000000
      2010        28  CHL1      H7A            38.1511982455      -22.4067630072       12.5233450000  MEMB      28              0.0000000000
      2011        28  CHL1      H7B            40.0246769406      -22.2286504822       12.6397050000  MEMB      28              0.0000000000
      2012        28  CHL1      C8             39.2187537303      -24.2546286216       12.6689250000  MEMB      28              0.0000000000
      2013        28  CHL1      H8             38.2606196164      -24.8114590064       12.7478350000  MEMB      28              0.0000000000
      2014        28  CHL1      C14            39.6293144143      -24.3374713351       11.2658650000  MEMB      28              0.0000000000
      2015        28  CHL1      H14            40.6631630499      -23.9404809810       11.1771150000  MEMB      28              0.0000000000
      2016        28  CHL1      C15            38.9106778571      -23.5105978039       10.1517850000  MEMB      28              0.0000000000
      2017        28  CHL1      H15A           37.8395591513      -23.5351029595       10.4457750000  MEMB      28              0.0000000000
      2018        28  CHL1      H15B           39.3515413400      -22.4945617209       10.0645150000  MEMB      28              0.0000000000
      2019        28  CHL1      C16            39.1122559730      -24.2472887710        8.8672550000  MEMB      28              0.0000000000
      2020        28  CHL1      H16A           38.1367059583      -24.7214194188        8.6267950000  MEMB      28              0.0000000000
      2021        28  CHL1      H16B           39.4032750472      -23.5708181086        8.0353750000  MEMB      28              0.0000000000
      2022        28  CHL1      C17            40.1667727903      -25.3134587813        9.1720450000  MEMB      28              0.0000000000
      2023        28  CHL1      H17            41.1265442094      -24.7556423783        9.1274450000  MEMB      28              0.0000000000
      2024        28  CHL1      C13            39.8784252699      -25.7460591419       10.6152750000  MEMB      28              0.0000000000
      2025        28  CHL1      C18            38.7100954903      -26.6756299707       10.5912750000  MEMB      28              0.0000000000
      2026        28  CHL1      H18A           37.9379492130      -26.3295271485        9.8713250000  MEMB      28              0.0000000000
      2027        28  CHL1      H18B           38.8331965525      -27.7318382876       10.2694250000  MEMB      28              0.0000000000
      2028        28  CHL1      H18C           38.3399403279      -26.6458026778       11.6383750000  MEMB      28              0.0000000000
      2029        28  CHL1      C12            40.9917607177      -26.3891503877       11.5617650000  MEMB      28              0.0000000000
      2030        28  CHL1      H12A           41.2231202251      -27.4488212265       11.3211450000  MEMB      28              0.0000000000
      2031        28  CHL1      H12B           41.9028217121      -25.7599169151       11.4703650000  MEMB      28              0.0000000000
      2032        28  CHL1      C11            40.5829722390      -26.4164608571       13.0535050000  MEMB      28              0.0000000000
      2033        28  CHL1      H11A           39.7362327081      -27.1289666921       13.1519850000  MEMB      28              0.0000000000
      2034        28  CHL1      H11B           41.5192906742      -26.7990080572       13.5131650000  MEMB      28              0.0000000000
      2035        28  CHL1      C9             40.2318520929      -25.0023531354       13.5413250000  MEMB      28              0.0000000000
      2036        28  CHL1      H9             41.1323022217      -24.3626636439       13.4216350000  MEMB      28              0.0000000000
      2037        28  CHL1      C10            39.8283192766      -24.9222413696       15.0296250000  MEMB      28              0.0000000000
      2038        28  CHL1      C19            38.6787001263      -25.9262152988       15.2772350000  MEMB      28              0.0000000000
      2039        28  CHL1      H19A           37.8913802544      -25.6559761849       14.5414150000  MEMB      28              0.0000000000
      2040        28  CHL1      H19B           38.9256460081      -26.9927416412       15.0878650000  MEMB      28              0.0000000000
      2041        28  CHL1      H19C           38.4462281800      -25.8703119539       16.3622050000  MEMB      28              0.0000000000
      2042        28  CHL1      C1             41.1362342542      -25.2977405575       15.8445350000  MEMB      28              0.0000000000
      2043        28  CHL1      H1A            41.1575589232      -26.4078685571       15.8831650000  MEMB      28              0.0000000000
      2044        28  CHL1      H1B            42.0551352472      -24.8977994800       15.3649650000  MEMB      28              0.0000000000
      2045        28  CHL1      C2             41.1347748316      -24.8313945720       17.2855150000  MEMB      28              0.0000000000
      2046        28  CHL1      H2A            42.2041924119      -24.8040323074       17.5853750000  MEMB      28              0.0000000000
      2047        28  CHL1      H2B            40.5244265246      -25.5727509580       17.8442550000  MEMB      28              0.0000000000
      2048        28  CHL1      C20            40.2433895037      -26.4122653354        8.0568650000  MEMB      28              0.0000000000
      2049        28  CHL1      H20            39.2954102396      -26.9729437100        7.9109050000  MEMB      28              0.0000000000
      2050        28  CHL1      C21            41.2748627195      -27.4907669566        8.4214550000  MEMB      28              0.0000000000
      2051        28  CHL1      H21A           40.9794143693      -28.2104155487        9.2146450000  MEMB      28              0.0000000000
      2052        28  CHL1      H21B           42.1480403295      -26.9318360820        8.8208050000  MEMB      28              0.0000000000
      2053        28  CHL1      H21C           41.5912389756      -28.0875269196        7.5393550000  MEMB      28              0.0000000000
      2054        28  CHL1      C22            40.4901389834      -25.7478631778        6.7346550000  MEMB      28              0.0000000000
      2055        28  CHL1      H22A           39.6029096111      -25.1471207873        6.4409450000  MEMB      28              0.0000000000
      2056        28  CHL1      H22B           41.4009110283      -25.1133027259        6.7808450000  MEMB      28              0.0000000000
      2057        28  CHL1      C23            40.7391407378      -26.7389821791        5.5777350000  MEMB      28              0.0000000000
      2058        28  CHL1      H23A           41.7345511027      -27.1596771754        5.8356150000  MEMB      28              0.0000000000
      2059        28  CHL1      H23B           39.8970510418      -27.4631442886        5.5494650000  MEMB      28              0.0000000000
      2060        28  CHL1      C24            40.9801355504      -26.1488037583        4.2279250000  MEMB      28              0.0000000000
      2061        28  CHL1      H24A           40.0691502674      -25.8429065653        3.6703850000  MEMB      28              0.0000000000
      2062        28  CHL1      H24B           41.5016439275      -25.2018661988        4.4841750000  MEMB      28              0.0000000000
      2063        28  CHL1      C25            41.9637217099      -26.9768388783        3.3696150000  MEMB      28              0.0000000000
      2064        28  CHL1      H25            42.6427367165      -27.5063030162        4.0717050000  MEMB      28              0.0000000000
      2065        28  CHL1      C26            41.0786583068      -27.8335132789        2.4012750000  MEMB      28              0.0000000000
      2066        28  CHL1      H26A           41.6529348816      -28.4138778235        1.6478250000  MEMB      28              0.0000000000
      2067        28  CHL1      H26B           40.5983739751      -28.5484612434        3.1030550000  MEMB      28              0.0000000000
      2068        28  CHL1      H26C           40.3049030058      -27.2271973413        1.8835750000  MEMB      28              0.0000000000
      2069        28  CHL1      C27            42.8731420878      -25.9947459994        2.4742750000  MEMB      28              0.0000000000
      2070        28  CHL1      H27A           43.2228437356      -25.1937146315        3.1601150000  MEMB      28              0.0000000000
      2071        28  CHL1      H27B           43.7097107989      -26.4881014638        1.9347650000  MEMB      28              0.0000000000
      2072        28  CHL1      H27C           42.2544128737      -25.5403640860        1.6711350000  MEMB      28              0.0000000000
      2073        29  CHL1      C3             12.3172428623       38.9699233433       17.3314250000  MEMB      29              0.0000000000
      2074        29  CHL1      H3             12.5954499497       37.8948594080       17.2974350000  MEMB      29              0.0000000000
      2075        29  CHL1      O3             11.9829179377       39.3562768567       18.6685750000  MEMB      29              0.0000000000
      2076        29  CHL1      H3'            11.4830321095       38.6544424171       19.0918150000  MEMB      29              0.0000000000
      2077        29  CHL1      C4             13.5893451925       39.7632020940       17.0206150000  MEMB      29              0.0000000000
      2078        29  CHL1      H4A            13.5946567460       40.8608556447       17.1922550000  MEMB      29              0.0000000000
      2079        29  CHL1      H4B            14.3716300649       39.3939967252       17.7177750000  MEMB      29              0.0000000000
      2080        29  CHL1      C5             13.9034915008       39.5599588814       15.5321850000  MEMB      29              0.0000000000
      2081        29  CHL1      C6             15.1382423770       39.1403960347       15.1275550000  MEMB      29              0.0000000000
      2082        29  CHL1      H6             15.8669222345       38.8417549690       15.8955650000  MEMB      29              0.0000000000
      2083        29  CHL1      C7             15.6640084243       39.0435909604       13.7012350000  MEMB      29              0.0000000000
      2084        29  CHL1      H7A            16.7058619280       39.3955924394       13.5433050000  MEMB      29              0.0000000000
      2085        29  CHL1      H7B            15.7232286432       38.0011352442       13.3216150000  MEMB      29              0.0000000000
      2086        29  CHL1      C8             14.6678560576       39.8516192723       12.7991650000  MEMB      29              0.0000000000
      2087        29  CHL1      H8             14.9780730501       40.9014639543       12.9886850000  MEMB      29              0.0000000000
      2088        29  CHL1      C14            14.9300517010       39.5268333096       11.3357450000  MEMB      29              0.0000000000
      2089        29  CHL1      H14            14.6084087560       38.4742204496       11.1845450000  MEMB      29              0.0000000000
      2090        29  CHL1      C15            16.3263152433       39.5517655556       10.7424350000  MEMB      29              0.0000000000
      2091        29  CHL1      H15A           16.7363938724       40.4936550004       11.1655350000  MEMB      29              0.0000000000
      2092        29  CHL1      H15B           16.8606610484       38.6738134297       11.1643250000  MEMB      29              0.0000000000
      2093        29  CHL1      C16            16.1768417092       39.4565240295        9.2267450000  MEMB      29              0.0000000000
      2094        29  CHL1      H16A           16.8996607456       40.2113920354        8.8498850000  MEMB      29              0.0000000000
      2095        29  CHL1      H16B           16.3719053512       38.4869036222        8.7206650000  MEMB      29              0.0000000000
      2096        29  CHL1      C17            14.6369860146       39.7671256622        8.9850450000  MEMB      29              0.0000000000
      2097        29  CHL1      H17            14.1113873072       38.8007224500        8.8297450000  MEMB      29              0.0000000000
      2098        29  CHL1      C13            14.0405451269       40.2449001535       10.3120750000  MEMB      29              0.0000000000
      2099        29  CHL1      C18            14.3293536744       41.7842248692       10.3479250000  MEMB      29              0.0000000000
      2100        29  CHL1      H18A           14.2354947549       42.1318543734       11.3989550000  MEMB      29              0.0000000000
      2101        29  CHL1      H18B           15.3609498211       41.9532572180        9.9716850000  MEMB      29              0.0000000000
      2102        29  CHL1      H18C           13.5981810381       42.3509945610        9.7327250000  MEMB      29              0.0000000000
      2103        29  CHL1      C12            12.5792246809       39.8892190536       10.5042850000  MEMB      29              0.0000000000
      2104        29  CHL1      H12A           11.9282299826       40.5674042275        9.9121750000  MEMB      29              0.0000000000
      2105        29  CHL1      H12B           12.2777632105       38.8644336780       10.1988850000  MEMB      29              0.0000000000
      2106        29  CHL1      C11            12.2904270672       40.1543504895       12.0476250000  MEMB      29              0.0000000000
      2107        29  CHL1      H11A           12.1239123061       41.2454819556       12.1742050000  MEMB      29              0.0000000000
      2108        29  CHL1      H11B           11.3223214310       39.6302275550       12.1972750000  MEMB      29              0.0000000000
      2109        29  CHL1      C9             13.2147757909       39.4898326056       13.0919150000  MEMB      29              0.0000000000
      2110        29  CHL1      H9             13.1452798814       38.3913124205       12.9411250000  MEMB      29              0.0000000000
      2111        29  CHL1      C10            12.8301224756       39.9024086378       14.4965450000  MEMB      29              0.0000000000
      2112        29  CHL1      C19            12.6008145510       41.4511580353       14.6991950000  MEMB      29              0.0000000000
      2113        29  CHL1      H19A           11.6236625291       41.7623175684       14.2717850000  MEMB      29              0.0000000000
      2114        29  CHL1      H19B           12.5526619551       41.7559899733       15.7664750000  MEMB      29              0.0000000000
      2115        29  CHL1      H19C           13.4417958017       41.9635589597       14.1848850000  MEMB      29              0.0000000000
      2116        29  CHL1      C1             11.5682380591       39.0897741970       14.9160050000  MEMB      29              0.0000000000
      2117        29  CHL1      H1A            10.7523910644       39.3623740067       14.2128750000  MEMB      29              0.0000000000
      2118        29  CHL1      H1B            11.8655484821       38.0342002635       14.7379450000  MEMB      29              0.0000000000
      2119        29  CHL1      C2             11.1667804138       39.1915435128       16.3896050000  MEMB      29              0.0000000000
      2120        29  CHL1      H2A            10.4106431173       38.4098804300       16.6167150000  MEMB      29              0.0000000000
      2121        29  CHL1      H2B            10.6762211472       40.1709737548       16.5750850000  MEMB      29              0.0000000000
      2122        29  CHL1      C20            14.3937595099       40.5594427263        7.6368650000  MEMB      29              0.0000000000
      2123        29  CHL1      H20            14.8033880607       41.5807144110        7.7903050000  MEMB      29              0.0000000000
      2124        29  CHL1      C21            12.9150835886       40.7394302945        7.3210750000  MEMB      29              0.0000000000
      2125        29  CHL1      H21A           12.8008533646       41.2069808997        6.3197350000  MEMB      29              0.0000000000
      2126        29  CHL1      H21B           12.4203171886       41.4122355706        8.0537850000  MEMB      29              0.0000000000
      2127        29  CHL1      H21C           12.4744587403       39.7195804195        7.3288750000  MEMB      29              0.0000000000
      2128        29  CHL1      C22            15.1429927374       39.8057435624        6.5170150000  MEMB      29              0.0000000000
      2129        29  CHL1      H22A           16.2024422065       39.8355667514        6.8501750000  MEMB      29              0.0000000000
      2130        29  CHL1      H22B           14.8720569852       38.7360291379        6.3880550000  MEMB      29              0.0000000000
      2131        29  CHL1      C23            15.1497436754       40.5495956134        5.1964050000  MEMB      29              0.0000000000
      2132        29  CHL1      H23A           14.1006864063       40.4586259299        4.8421150000  MEMB      29              0.0000000000
      2133        29  CHL1      H23B           15.2957123382       41.6455265698        5.3056550000  MEMB      29              0.0000000000
      2134        29  CHL1      C24            16.2833758594       40.0721083755        4.3174350000  MEMB      29              0.0000000000
      2135        29  CHL1      H24A           16.3865957238       40.8266926226        3.5085650000  MEMB      29              0.0000000000
      2136        29  CHL1      H24B           17.1910076013       40.1451439361        4.9539850000  MEMB      29              0.0000000000
      2137        29  CHL1      C25            16.1093274279       38.7167783887        3.7267150000  MEMB      29              0.0000000000
      2138        29  CHL1      H25            15.7470428189       38.0453839734        4.5343750000  MEMB      29              0.0000000000
      2139        29  CHL1      C26            15.0763243203       38.5988953758        2.5734650000  MEMB      29              0.0000000000
      2140        29  CHL1      H26A           15.2056377001       39.3522707168        1.7672250000  MEMB      29              0.0000000000
      2141        29  CHL1      H26B           15.1265808568       37.6194429087        2.0514750000  MEMB      29              0.0000000000
      2142        29  CHL1      H26C           14.0521901823       38.7496401634        2.9769050000  MEMB      29              0.0000000000
      2143        29  CHL1      C27            17.5053323333       38.2403873047        3.1451750000  MEMB      29              0.0000000000
      2144        29  CHL1      H27A           17.3985569891       37.3385634466        2.5051550000  MEMB      29              0.0000000000
      2145        29  CHL1      H27B           17.9688206078       39.0884819614        2.5972550000  MEMB      29              0.0000000000
      2146        29  CHL1      H27C           18.1955375666       37.9215845406        3.9553050000  MEMB      29              0.0000000000
      2147        30  CHL1      C3            -43.6547893393      -31.3384020863       17.3576850000  MEMB      30              0.0000000000
      2148        30  CHL1      H3            -44.3395197095      -32.2131634233       17.3417550000  MEMB      30              0.0000000000
      2149        30  CHL1      O3            -43.2590014607      -30.9733667137       18.6423150000  MEMB      30              0.0000000000
      2150        30  CHL1      H3'           -43.0549690123      -31.8370365555       19.0084250000  MEMB      30              0.0000000000
      2151        30  CHL1      C4            -42.3948738939      -31.7831622825       16.5689050000  MEMB      30              0.0000000000
      2152        30  CHL1      H4A           -41.6728368198      -30.9438458484       16.6612350000  MEMB      30              0.0000000000
      2153        30  CHL1      H4B           -41.9689184618      -32.6000148016       17.1898950000  MEMB      30              0.0000000000
      2154        30  CHL1      C5            -42.7730277507      -32.1531964322       15.1228350000  MEMB      30              0.0000000000
      2155        30  CHL1      C6            -42.5820205381      -33.3838455760       14.6997750000  MEMB      30              0.0000000000
      2156        30  CHL1      H6            -42.1398464024      -34.1247402208       15.3820850000  MEMB      30              0.0000000000
      2157        30  CHL1      C7            -42.7833909987      -33.7981049272       13.2619050000  MEMB      30              0.0000000000
      2158        30  CHL1      H7A           -41.9764142048      -34.4861690964       12.9307450000  MEMB      30              0.0000000000
      2159        30  CHL1      H7B           -43.7708447038      -34.3067370127       13.2384950000  MEMB      30              0.0000000000
      2160        30  CHL1      C8            -42.8585010079      -32.6339651867       12.2774350000  MEMB      30              0.0000000000
      2161        30  CHL1      H8            -41.8361125619      -32.2105292231       12.1786950000  MEMB      30              0.0000000000
      2162        30  CHL1      C14           -43.3485504900      -33.0726626129       10.9004250000  MEMB      30              0.0000000000
      2163        30  CHL1      H14           -44.3494988070      -33.5482808595       10.9791950000  MEMB      30              0.0000000000
      2164        30  CHL1      C15           -42.5709605712      -34.1893303590       10.1297650000  MEMB      30              0.0000000000
      2165        30  CHL1      H15A          -41.4918637676      -34.0296797337       10.3404450000  MEMB      30              0.0000000000
      2166        30  CHL1      H15B          -42.8949457492      -35.2028885218       10.4492350000  MEMB      30              0.0000000000
      2167        30  CHL1      C16           -42.8156811998      -33.9643452325        8.6413050000  MEMB      30              0.0000000000
      2168        30  CHL1      H16A          -41.9880947065      -33.5815349461        8.0065750000  MEMB      30              0.0000000000
      2169        30  CHL1      H16B          -43.2021210325      -34.8082258818        8.0306850000  MEMB      30              0.0000000000
      2170        30  CHL1      C17           -43.8121955199      -32.7581047747        8.5488750000  MEMB      30              0.0000000000
      2171        30  CHL1      H17           -44.8222039453      -33.2208958534        8.5428650000  MEMB      30              0.0000000000
      2172        30  CHL1      C13           -43.5864204550      -31.9828150097        9.8388250000  MEMB      30              0.0000000000
      2173        30  CHL1      C18           -42.2232722973      -31.2165410636        9.6532850000  MEMB      30              0.0000000000
      2174        30  CHL1      H18A          -42.1275697088      -30.7042521286        8.6721050000  MEMB      30              0.0000000000
      2175        30  CHL1      H18B          -42.1371118609      -30.5107919918       10.5069950000  MEMB      30              0.0000000000
      2176        30  CHL1      H18C          -41.3308283634      -31.8699864810        9.7575750000  MEMB      30              0.0000000000
      2177        30  CHL1      C12           -44.6846107642      -31.0356006735       10.3772750000  MEMB      30              0.0000000000
      2178        30  CHL1      H12A          -45.0500739678      -30.1729434343        9.7801350000  MEMB      30              0.0000000000
      2179        30  CHL1      H12B          -45.6191957788      -31.6181024582       10.5241350000  MEMB      30              0.0000000000
      2180        30  CHL1      C11           -44.3376240514      -30.5411760579       11.7941950000  MEMB      30              0.0000000000
      2181        30  CHL1      H11A          -43.6064248333      -29.7112624540       11.8986350000  MEMB      30              0.0000000000
      2182        30  CHL1      H11B          -45.2706809575      -30.0488793860       12.1425850000  MEMB      30              0.0000000000
      2183        30  CHL1      C9            -43.8571224298      -31.6679594462       12.8419950000  MEMB      30              0.0000000000
      2184        30  CHL1      H9            -44.7466846773      -32.3279246864       12.9283250000  MEMB      30              0.0000000000
      2185        30  CHL1      C10           -43.4231200961      -31.0656405664       14.2393950000  MEMB      30              0.0000000000
      2186        30  CHL1      C19           -42.3788312685      -29.9441521369       14.0398750000  MEMB      30              0.0000000000
      2187        30  CHL1      H19A          -42.6283473735      -29.0470371537       13.4338750000  MEMB      30              0.0000000000
      2188        30  CHL1      H19B          -42.0249557399      -29.6200488960       15.0418950000  MEMB      30              0.0000000000
      2189        30  CHL1      H19C          -41.4198309428      -30.3742291440       13.6797850000  MEMB      30              0.0000000000
      2190        30  CHL1      C1            -44.5502806911      -30.5086085403       15.0556750000  MEMB      30              0.0000000000
      2191        30  CHL1      H1A           -45.0765724559      -29.6703947542       14.5509650000  MEMB      30              0.0000000000
      2192        30  CHL1      H1B           -45.2462806165      -31.3745422148       15.0634550000  MEMB      30              0.0000000000
      2193        30  CHL1      C2            -44.4264402738      -30.2168861585       16.5459550000  MEMB      30              0.0000000000
      2194        30  CHL1      H2A           -45.4105629742      -30.1264332248       17.0535250000  MEMB      30              0.0000000000
      2195        30  CHL1      H2B           -43.8345324839      -29.2782732859       16.6005250000  MEMB      30              0.0000000000
      2196        30  CHL1      C20           -43.8082997122      -31.9371555775        7.2046350000  MEMB      30              0.0000000000
      2197        30  CHL1      H20           -42.7468727100      -31.7792794994        6.9169150000  MEMB      30              0.0000000000
      2198        30  CHL1      C21           -44.5021878080      -30.6048623335        7.1615950000  MEMB      30              0.0000000000
      2199        30  CHL1      H21A          -43.9648291829      -30.0227320105        7.9404850000  MEMB      30              0.0000000000
      2200        30  CHL1      H21B          -45.5558373157      -30.8112776028        7.4471450000  MEMB      30              0.0000000000
      2201        30  CHL1      H21C          -44.3380078036      -30.0669069299        6.2034850000  MEMB      30              0.0000000000
      2202        30  CHL1      C22           -44.3520486220      -32.7478655356        5.9948250000  MEMB      30              0.0000000000
      2203        30  CHL1      H22A          -43.9647218795      -33.7891323383        5.9870750000  MEMB      30              0.0000000000
      2204        30  CHL1      H22B          -45.4516055383      -32.8151106535        6.1389350000  MEMB      30              0.0000000000
      2205        30  CHL1      C23           -43.9874447898      -32.1564899318        4.5714650000  MEMB      30              0.0000000000
      2206        30  CHL1      H23A          -44.5934054886      -31.2487479041        4.3637450000  MEMB      30              0.0000000000
      2207        30  CHL1      H23B          -42.8878830898      -32.0125640263        4.5038550000  MEMB      30              0.0000000000
      2208        30  CHL1      C24           -44.4730015779      -33.0612005125        3.3815650000  MEMB      30              0.0000000000
      2209        30  CHL1      H24A          -44.0478649299      -34.0870130748        3.4176150000  MEMB      30              0.0000000000
      2210        30  CHL1      H24B          -45.5592407252      -33.1013919869        3.6113050000  MEMB      30              0.0000000000
      2211        30  CHL1      C25           -44.3972116389      -32.5695331411        2.0015150000  MEMB      30              0.0000000000
      2212        30  CHL1      H25           -44.8959230717      -31.5796423987        1.9259550000  MEMB      30              0.0000000000
      2213        30  CHL1      C26           -42.9735586634      -32.3179854011        1.5376850000  MEMB      30              0.0000000000
      2214        30  CHL1      H26A          -43.1059038365      -32.1413244259        0.4488350000  MEMB      30              0.0000000000
      2215        30  CHL1      H26B          -42.5379596455      -31.4766063141        2.1179250000  MEMB      30              0.0000000000
      2216        30  CHL1      H26C          -42.3926198555      -33.2606573869        1.6282450000  MEMB      30              0.0000000000
      2217        30  CHL1      C27           -44.9400787421      -33.5223030880        0.9671350000  MEMB      30              0.0000000000
      2218        30  CHL1      H27A          -44.3659118511      -34.4709781682        0.8988850000  MEMB      30              0.0000000000
      2219        30  CHL1      H27B          -46.0259482386      -33.6893166972        1.1324050000  MEMB      30              0.0000000000
      2220        30  CHL1      H27C          -44.8286037496      -33.0679689653       -0.0405750000  MEMB      30              0.0000000000
      2221        31  CHL1      C3            -54.6640184535       18.4644472624       17.2855200000  MEMB      31              0.0000000000
      2222        31  CHL1      H3            -54.7099545715       17.3572872634       17.2055900000  MEMB      31              0.0000000000
      2223        31  CHL1      O3            -54.7410777465       18.7049885376       18.7144800000  MEMB      31              0.0000000000
      2224        31  CHL1      H3'           -55.6704004474       18.5214281382       18.8702400000  MEMB      31              0.0000000000
      2225        31  CHL1      C4            -53.3520072651       18.9261261205       16.7502500000  MEMB      31              0.0000000000
      2226        31  CHL1      H4A           -53.0335077547       19.9297981320       17.1045400000  MEMB      31              0.0000000000
      2227        31  CHL1      H4B           -52.6614603714       18.2026295224       17.2340100000  MEMB      31              0.0000000000
      2228        31  CHL1      C5            -53.1602020355       18.7318050902       15.2579000000  MEMB      31              0.0000000000
      2229        31  CHL1      C6            -52.1135339023       18.1702846359       14.6998000000  MEMB      31              0.0000000000
      2230        31  CHL1      H6            -51.4483902541       17.6769482506       15.4238100000  MEMB      31              0.0000000000
      2231        31  CHL1      C7            -52.0100721937       18.1223541596       13.1895600000  MEMB      31              0.0000000000
      2232        31  CHL1      H7A           -51.0278755844       18.2768522087       12.6938400000  MEMB      31              0.0000000000
      2233        31  CHL1      H7B           -52.3366863811       17.0762581913       13.0070000000  MEMB      31              0.0000000000
      2234        31  CHL1      C8            -53.0146086598       19.0134680645       12.4153800000  MEMB      31              0.0000000000
      2235        31  CHL1      H8            -52.5372164611       20.0090579996       12.5387300000  MEMB      31              0.0000000000
      2236        31  CHL1      C14           -52.9704170005       18.8413090820       10.9554300000  MEMB      31              0.0000000000
      2237        31  CHL1      H14           -53.2855640808       17.7879457582       10.7960100000  MEMB      31              0.0000000000
      2238        31  CHL1      C15           -51.6276315269       18.9534843533       10.2381000000  MEMB      31              0.0000000000
      2239        31  CHL1      H15A          -51.2534035530       19.9140755298       10.6522800000  MEMB      31              0.0000000000
      2240        31  CHL1      H15B          -50.8298473882       18.2268800603       10.5025000000  MEMB      31              0.0000000000
      2241        31  CHL1      C16           -52.0201129723       18.9695090442        8.7369700000  MEMB      31              0.0000000000
      2242        31  CHL1      H16A          -51.3088249534       19.7148348352        8.3211700000  MEMB      31              0.0000000000
      2243        31  CHL1      H16B          -51.9518707422       17.9927731400        8.2119400000  MEMB      31              0.0000000000
      2244        31  CHL1      C17           -53.5498465089       19.3152584316        8.7079100000  MEMB      31              0.0000000000
      2245        31  CHL1      H17           -54.0706809555       18.3573699542        8.4945900000  MEMB      31              0.0000000000
      2246        31  CHL1      C13           -53.9686846662       19.7049376937       10.1754900000  MEMB      31              0.0000000000
      2247        31  CHL1      C18           -53.6204260437       21.1942265133       10.2843200000  MEMB      31              0.0000000000
      2248        31  CHL1      H18A          -54.5102549144       21.8115902011       10.0365800000  MEMB      31              0.0000000000
      2249        31  CHL1      H18B          -53.2225232179       21.5220470888       11.2684600000  MEMB      31              0.0000000000
      2250        31  CHL1      H18C          -52.8174782090       21.4590446662        9.5635700000  MEMB      31              0.0000000000
      2251        31  CHL1      C12           -55.3850669475       19.4501806687       10.6753800000  MEMB      31              0.0000000000
      2252        31  CHL1      H12A          -56.0273109022       20.1303368480       10.0760200000  MEMB      31              0.0000000000
      2253        31  CHL1      H12B          -55.8184062468       18.4433755007       10.4940100000  MEMB      31              0.0000000000
      2254        31  CHL1      C11           -55.4804906489       19.7158794120       12.1558900000  MEMB      31              0.0000000000
      2255        31  CHL1      H11A          -55.4232031217       20.8044189409       12.3706300000  MEMB      31              0.0000000000
      2256        31  CHL1      H11B          -56.4095770350       19.2481417786       12.5462100000  MEMB      31              0.0000000000
      2257        31  CHL1      C9            -54.3288090881       19.0320238400       13.0230200000  MEMB      31              0.0000000000
      2258        31  CHL1      H9            -54.6091811536       17.9602663311       13.1069800000  MEMB      31              0.0000000000
      2259        31  CHL1      C10           -54.3004676595       19.3717483429       14.4937900000  MEMB      31              0.0000000000
      2260        31  CHL1      C19           -54.1553860287       20.8265810620       14.6047400000  MEMB      31              0.0000000000
      2261        31  CHL1      H19A          -53.2012514124       21.2347430951       14.2080400000  MEMB      31              0.0000000000
      2262        31  CHL1      H19B          -55.0764209824       21.3342604074       14.2465800000  MEMB      31              0.0000000000
      2263        31  CHL1      H19C          -54.0225113507       21.1458866336       15.6605300000  MEMB      31              0.0000000000
      2264        31  CHL1      C1            -55.6941110085       18.9222409786       15.0775100000  MEMB      31              0.0000000000
      2265        31  CHL1      H1A           -56.5918552671       19.4309811356       14.6657500000  MEMB      31              0.0000000000
      2266        31  CHL1      H1B           -55.7917185629       17.8401986041       14.8451800000  MEMB      31              0.0000000000
      2267        31  CHL1      C2            -55.8451583514       19.1606048740       16.5996800000  MEMB      31              0.0000000000
      2268        31  CHL1      H2A           -56.7809558281       18.6384515180       16.8928600000  MEMB      31              0.0000000000
      2269        31  CHL1      H2B           -55.9864718206       20.2578144206       16.7020600000  MEMB      31              0.0000000000
      2270        31  CHL1      C20           -54.0122243015       20.1257443936        7.5273400000  MEMB      31              0.0000000000
      2271        31  CHL1      H20           -53.5614073357       21.1405475845        7.4921000000  MEMB      31              0.0000000000
      2272        31  CHL1      C21           -55.4495545041       20.2441364850        7.4207200000  MEMB      31              0.0000000000
      2273        31  CHL1      H21A          -55.8195252505       20.8337695483        8.2866200000  MEMB      31              0.0000000000
      2274        31  CHL1      H21B          -56.0169271601       19.2893160792        7.3936600000  MEMB      31              0.0000000000
      2275        31  CHL1      H21C          -55.7821623186       20.8439413287        6.5466900000  MEMB      31              0.0000000000
      2276        31  CHL1      C22           -53.3332988183       19.5231817247        6.2495100000  MEMB      31              0.0000000000
      2277        31  CHL1      H22A          -52.2277339158       19.5205781864        6.3592900000  MEMB      31              0.0000000000
      2278        31  CHL1      H22B          -53.5910330884       18.4657606036        6.0264600000  MEMB      31              0.0000000000
      2279        31  CHL1      C23           -53.5268927429       20.4815882642        5.0491700000  MEMB      31              0.0000000000
      2280        31  CHL1      H23A          -54.5794148159       20.6557475390        4.7390200000  MEMB      31              0.0000000000
      2281        31  CHL1      H23B          -53.1443881513       21.4719223457        5.3766600000  MEMB      31              0.0000000000
      2282        31  CHL1      C24           -52.8062224364       20.0092248093        3.7053100000  MEMB      31              0.0000000000
      2283        31  CHL1      H24A          -51.7400875717       19.8343670328        3.9643300000  MEMB      31              0.0000000000
      2284        31  CHL1      H24B          -53.3623875795       19.1253381371        3.3261500000  MEMB      31              0.0000000000
      2285        31  CHL1      C25           -52.9595587657       21.1924592084        2.7776300000  MEMB      31              0.0000000000
      2286        31  CHL1      H25           -52.4642173961       22.0941260039        3.1971100000  MEMB      31              0.0000000000
      2287        31  CHL1      C26           -52.0884196991       20.8705790906        1.5441700000  MEMB      31              0.0000000000
      2288        31  CHL1      H26A          -52.0083854266       21.7858164115        0.9194700000  MEMB      31              0.0000000000
      2289        31  CHL1      H26B          -51.0262020824       20.6705776693        1.8011200000  MEMB      31              0.0000000000
      2290        31  CHL1      H26C          -52.5230129853       20.0551365606        0.9273300000  MEMB      31              0.0000000000
      2291        31  CHL1      C27           -54.3488525614       21.4327968737        2.2523900000  MEMB      31              0.0000000000
      2292        31  CHL1      H27A          -54.3038790481       22.2843750700        1.5402800000  MEMB      31              0.0000000000
      2293        31  CHL1      H27B          -54.7149028881       20.5574032036        1.6744600000  MEMB      31              0.0000000000
      2294        31  CHL1      H27C          -55.0754653908       21.7462961220        3.0321900000  MEMB      31              0.0000000000
      2295        32  POPC      N               6.3628449905      -41.8064981706       20.7339728039  MEMB      32              0.0000000000
      2296        32  POPC      C12             4.9064637960      -42.2575635639       20.9011479036  MEMB      32              0.0000000000
      2297        32  POPC      H12A            4.4658802741      -41.6584404479       21.6843067399  MEMB      32              0.0000000000
      2298        32  POPC      H12B            4.8122099936      -43.2998442821       21.1679196813  MEMB      32              0.0000000000
      2299        32  POPC      C13             7.0194782440      -42.4050700182       19.5302173094  MEMB      32              0.0000000000
      2300        32  POPC      H13A            6.9677084401      -43.4832810171       19.5645824538  MEMB      32              0.0000000000
      2301        32  POPC      H13B            6.4471655327      -42.1419761032       18.6529261322  MEMB      32              0.0000000000
      2302        32  POPC      H13C            8.0073165647      -42.0059049629       19.3534611358  MEMB      32              0.0000000000
      2303        32  POPC      C14             6.2407079547      -40.2653600654       20.6441263394  MEMB      32              0.0000000000
      2304        32  POPC      H14A            7.2669995343      -39.9401115208       20.5584590175  MEMB      32              0.0000000000
      2305        32  POPC      H14B            5.5291508443      -39.9668400399       19.8884993508  MEMB      32              0.0000000000
      2306        32  POPC      H14C            5.9822392100      -39.9727052506       21.6510758378  MEMB      32              0.0000000000
      2307        32  POPC      C15             7.2142107748      -41.9698819753       21.9717977908  MEMB      32              0.0000000000
      2308        32  POPC      H15A            8.1830031675      -41.4950913198       21.9226537571  MEMB      32              0.0000000000
      2309        32  POPC      H15B            7.3385979585      -43.0238576493       22.1719556167  MEMB      32              0.0000000000
      2310        32  POPC      H15C            6.6350665271      -41.6469681646       22.8242757409  MEMB      32              0.0000000000
      2311        32  POPC      C11             4.0000755204      -42.0592398537       19.6929678924  MEMB      32              0.0000000000
      2312        32  POPC      H11A            3.8500599534      -41.0048720825       19.3765425702  MEMB      32              0.0000000000
      2313        32  POPC      H11B            2.9534256529      -42.2693491480       20.0007000422  MEMB      32              0.0000000000
      2314        32  POPC      P               4.1233873443      -42.5545778843       17.0888862496  MEMB      32              0.0000000000
      2315        32  POPC      O13             4.5266563272      -41.1264138023       16.9227998424  MEMB      32              0.0000000000
      2316        32  POPC      O14             2.8330692098      -43.0768267732       16.5377718509  MEMB      32              0.0000000000
      2317        32  POPC      O12             4.2992727675      -42.9341037742       18.6381909882  MEMB      32              0.0000000000
      2318        32  POPC      O11             5.1812152286      -43.4336833217       16.3381210133  MEMB      32              0.0000000000
      2319        32  POPC      C1              5.5407250720      -44.7783963409       16.7344645851  MEMB      32              0.0000000000
      2320        32  POPC      HA              4.7063467983      -45.5036560218       16.8446108441  MEMB      32              0.0000000000
      2321        32  POPC      HB              6.1156257292      -44.7389896828       17.6843369605  MEMB      32              0.0000000000
      2322        32  POPC      C2              6.4030072485      -45.3271730089       15.5381180580  MEMB      32              0.0000000000
      2323        32  POPC      HS              6.9353542953      -46.2308383256       15.9046103805  MEMB      32              0.0000000000
      2324        32  POPC      O21             7.4249025062      -44.3019841261       15.2751435688  MEMB      32              0.0000000000
      2325        32  POPC      C21             8.4291310357      -43.9728485544       16.1294431278  MEMB      32              0.0000000000
      2326        32  POPC      O22             8.6624404042      -44.5054996568       17.1884178757  MEMB      32              0.0000000000
      2327        32  POPC      C22             9.3204576017      -42.8508385957       15.5643418666  MEMB      32              0.0000000000
      2328        32  POPC      H2R            10.1573781803      -43.3120729366       14.9976427296  MEMB      32              0.0000000000
      2329        32  POPC      H2S             9.6082420115      -42.3698301380       16.5235767621  MEMB      32              0.0000000000
      2330        32  POPC      C3              5.4945799441      -45.5630413611       14.3993707652  MEMB      32              0.0000000000
      2331        32  POPC      HX              4.7486949107      -44.7796823083       14.1457464179  MEMB      32              0.0000000000
      2332        32  POPC      HY              4.9270117506      -46.5153202400       14.4725273779  MEMB      32              0.0000000000
      2333        32  POPC      O31             6.2585495035      -45.7283843748       13.2390190192  MEMB      32              0.0000000000
      2334        32  POPC      C31             6.7515610412      -46.9478167834       12.9517570744  MEMB      32              0.0000000000
      2335        32  POPC      O32             6.5468451802      -48.0229384750       13.5245930804  MEMB      32              0.0000000000
      2336        32  POPC      C32             7.6703241371      -46.7928085462       11.6594139020  MEMB      32              0.0000000000
      2337        32  POPC      H2X             7.0118050496      -46.6394437135       10.7778511880  MEMB      32              0.0000000000
      2338        32  POPC      H2Y             8.1603781192      -47.7756657265       11.4916057388  MEMB      32              0.0000000000
      2339        32  POPC      C23             8.5881529342      -41.8581308407       14.5849962971  MEMB      32              0.0000000000
      2340        32  POPC      H3R             8.2650207728      -42.4745933474       13.7190398614  MEMB      32              0.0000000000
      2341        32  POPC      H3S             9.4054525197      -41.1540199850       14.3193460207  MEMB      32              0.0000000000
      2342        32  POPC      C24             7.4123326450      -41.2148352836       15.3057414765  MEMB      32              0.0000000000
      2343        32  POPC      H4R             7.7348506659      -40.9824639557       16.3431935656  MEMB      32              0.0000000000
      2344        32  POPC      H4S             6.6232646571      -41.9569298350       15.5526999165  MEMB      32              0.0000000000
      2345        32  POPC      C25             6.8279274269      -40.1812768583       14.4133925366  MEMB      32              0.0000000000
      2346        32  POPC      H5R             7.6388701654      -39.6224145554       13.8992275721  MEMB      32              0.0000000000
      2347        32  POPC      H5S             6.1742670015      -39.5257900740       15.0277102150  MEMB      32              0.0000000000
      2348        32  POPC      C26             6.0836147197      -40.7888006005       13.1474815200  MEMB      32              0.0000000000
      2349        32  POPC      H6R             5.3904040986      -41.4769848567       13.6768043388  MEMB      32              0.0000000000
      2350        32  POPC      H6S             6.8211503208      -41.4655280067       12.6654008072  MEMB      32              0.0000000000
      2351        32  POPC      C27             5.3948922127      -39.9618488891       12.0434437338  MEMB      32              0.0000000000
      2352        32  POPC      H7R             6.0129417642      -39.0452380998       11.9331676227  MEMB      32              0.0000000000
      2353        32  POPC      H7S             4.5212678640      -39.4276694283       12.4744350108  MEMB      32              0.0000000000
      2354        32  POPC      C28             5.1310172718      -40.6549082764       10.7269393878  MEMB      32              0.0000000000
      2355        32  POPC      H8R             6.0704409011      -41.0213488775       10.2605427920  MEMB      32              0.0000000000
      2356        32  POPC      H8S             4.8553433273      -39.8082650895       10.0624694565  MEMB      32              0.0000000000
      2357        32  POPC      C29             4.0074314297      -41.6501914206       10.8620336684  MEMB      32              0.0000000000
      2358        32  POPC      H91             3.1205605002      -41.1229459708       11.2434418358  MEMB      32              0.0000000000
      2359        32  POPC      C210            4.0334793939      -42.9937270974       10.6455961936  MEMB      32              0.0000000000
      2360        32  POPC      H101            3.1570235022      -43.6527975162       10.7319164875  MEMB      32              0.0000000000
      2361        32  POPC      C211            5.2275404604      -43.7900164620       10.2463716501  MEMB      32              0.0000000000
      2362        32  POPC      H11R            5.1652542144      -44.7474907127       10.8064471088  MEMB      32              0.0000000000
      2363        32  POPC      H11S            6.1620948348      -43.2240844246       10.4479905519  MEMB      32              0.0000000000
      2364        32  POPC      C212            5.2248360843      -44.2402462119        8.7876986139  MEMB      32              0.0000000000
      2365        32  POPC      H12R            6.2865289503      -44.3752187357        8.4895181106  MEMB      32              0.0000000000
      2366        32  POPC      H12S            4.9724302230      -43.4263993251        8.0747711062  MEMB      32              0.0000000000
      2367        32  POPC      C213            4.5149315249      -45.5556246572        8.4468191162  MEMB      32              0.0000000000
      2368        32  POPC      H13R            3.5273090877      -45.6581429969        8.9452294076  MEMB      32              0.0000000000
      2369        32  POPC      H13S            5.0925573014      -46.3934717534        8.8925562627  MEMB      32              0.0000000000
      2370        32  POPC      C214            4.3058599195      -45.9624093064        6.9293398683  MEMB      32              0.0000000000
      2371        32  POPC      H14R            3.6009803267      -45.2345879972        6.4735526500  MEMB      32              0.0000000000
      2372        32  POPC      H14S            3.9217290245      -47.0046485115        6.9069383423  MEMB      32              0.0000000000
      2373        32  POPC      C215            5.5826605858      -45.8401200979        6.1449896090  MEMB      32              0.0000000000
      2374        32  POPC      H15R            6.2986371805      -46.5596164981        6.5966790728  MEMB      32              0.0000000000
      2375        32  POPC      H15S            5.8960530792      -44.8420940932        6.5192221848  MEMB      32              0.0000000000
      2376        32  POPC      C216            5.5068756881      -46.0213057803        4.5999975210  MEMB      32              0.0000000000
      2377        32  POPC      H16R            5.0099233626      -45.1766234496        4.0766704564  MEMB      32              0.0000000000
      2378        32  POPC      H16S            5.0189818587      -47.0015167707        4.4116700081  MEMB      32              0.0000000000
      2379        32  POPC      C217            6.8972439716      -46.0376736849        3.9317819606  MEMB      32              0.0000000000
      2380        32  POPC      H17R            7.7196457954      -46.5427591392        4.4821131314  MEMB      32              0.0000000000
      2381        32  POPC      H17S            7.2712320756      -44.9930199499        3.8756347877  MEMB      32              0.0000000000
      2382        32  POPC      C218            6.8749039637      -46.6373845153        2.5352291184  MEMB      32              0.0000000000
      2383        32  POPC      H18R            6.7782050097      -47.7440596231        2.5507323137  MEMB      32              0.0000000000
      2384        32  POPC      H18S            7.9339253785      -46.5708814945        2.2060302324  MEMB      32              0.0000000000
      2385        32  POPC      H18T            6.2791127438      -46.1731290315        1.7204773290  MEMB      32              0.0000000000
      2386        32  POPC      C33             8.5926147129      -45.5650119639       11.6681333716  MEMB      32              0.0000000000
      2387        32  POPC      H3X             9.3305886819      -45.6934848431       12.4886272435  MEMB      32              0.0000000000
      2388        32  POPC      H3Y             7.8708359937      -44.7328274264       11.8124429642  MEMB      32              0.0000000000
      2389        32  POPC      C34             9.4400558708      -45.3439410441       10.4055496723  MEMB      32              0.0000000000
      2390        32  POPC      H4X             9.9913423871      -46.2317660163       10.0284940961  MEMB      32              0.0000000000
      2391        32  POPC      H4Y            10.2313734870      -44.6793246215       10.8134984895  MEMB      32              0.0000000000
      2392        32  POPC      C35             8.7617662919      -44.5630731516        9.2232900752  MEMB      32              0.0000000000
      2393        32  POPC      H5X             8.1378642016      -43.7219179484        9.5941334500  MEMB      32              0.0000000000
      2394        32  POPC      H5Y             8.2718570579      -45.3154416406        8.5688801518  MEMB      32              0.0000000000
      2395        32  POPC      C36             9.9564526519      -44.0192725735        8.3222955776  MEMB      32              0.0000000000
      2396        32  POPC      H6X            10.6373722647      -44.8734219934        8.1195652378  MEMB      32              0.0000000000
      2397        32  POPC      H6Y            10.4568377077      -43.3232062600        9.0289971499  MEMB      32              0.0000000000
      2398        32  POPC      C37             9.5927177448      -43.2759297363        7.0166976598  MEMB      32              0.0000000000
      2399        32  POPC      H7X             9.3664899590      -44.0464039056        6.2489003134  MEMB      32              0.0000000000
      2400        32  POPC      H7Y            10.4955217526      -42.7050370315        6.7111685952  MEMB      32              0.0000000000
      2401        32  POPC      C38             8.4182207486      -42.2659175439        7.1094075250  MEMB      32              0.0000000000
      2402        32  POPC      H8X             8.5741805851      -41.7326782718        8.0715165561  MEMB      32              0.0000000000
      2403        32  POPC      H8Y             7.4738851377      -42.8291110893        7.2686679993  MEMB      32              0.0000000000
      2404        32  POPC      C39             8.4487208934      -41.0872460779        6.1098048656  MEMB      32              0.0000000000
      2405        32  POPC      H9X             8.1746148296      -41.5055903736        5.1177490810  MEMB      32              0.0000000000
      2406        32  POPC      H9Y             9.4311334306      -40.6060705276        5.9157522147  MEMB      32              0.0000000000
      2407        32  POPC      C310            7.4585867638      -39.9751507889        6.4703093087  MEMB      32              0.0000000000
      2408        32  POPC      H10X            7.5266639157      -39.2594715884        5.6232619388  MEMB      32              0.0000000000
      2409        32  POPC      H10Y            7.8174464807      -39.5458791177        7.4301356672  MEMB      32              0.0000000000
      2410        32  POPC      C311            6.0582103372      -40.4685688519        6.6727268954  MEMB      32              0.0000000000
      2411        32  POPC      H11X            5.6096999861      -39.4824557114        6.9191829328  MEMB      32              0.0000000000
      2412        32  POPC      H11Y            5.9590564421      -41.1116505616        7.5732460644  MEMB      32              0.0000000000
      2413        32  POPC      C312            5.2758136335      -41.2370186284        5.6086121609  MEMB      32              0.0000000000
      2414        32  POPC      H12X            4.2876376897      -41.5452538265        6.0121224182  MEMB      32              0.0000000000
      2415        32  POPC      H12Y            5.8027130197      -42.2105947272        5.5145496465  MEMB      32              0.0000000000
      2416        32  POPC      C313            5.1999088300      -40.3778607946        4.3469830311  MEMB      32              0.0000000000
      2417        32  POPC      H13X            6.1695863473      -40.4525549368        3.8098917641  MEMB      32              0.0000000000
      2418        32  POPC      H13Y            4.9846832794      -39.2969169314        4.4868392177  MEMB      32              0.0000000000
      2419        32  POPC      C314            4.2024337697      -41.0749719491        3.3604340817  MEMB      32              0.0000000000
      2420        32  POPC      H14X            4.1547098799      -40.4540058104        2.4404095395  MEMB      32              0.0000000000
      2421        32  POPC      H14Y            3.1758642527      -41.0843627980        3.7851549380  MEMB      32              0.0000000000
      2422        32  POPC      C315            4.5464143380      -42.4824331839        2.8553076713  MEMB      32              0.0000000000
      2423        32  POPC      H15X            4.9604462785      -43.0382536537        3.7236176417  MEMB      32              0.0000000000
      2424        32  POPC      H15Y            5.3082691968      -42.3523693428        2.0571963129  MEMB      32              0.0000000000
      2425        32  POPC      C316            3.3435681660      -43.2423716664        2.3921701110  MEMB      32              0.0000000000
      2426        32  POPC      H16X            3.6850463785      -44.0153464638        1.6709031250  MEMB      32              0.0000000000
      2427        32  POPC      H16Y            2.7430316901      -42.5920257742        1.7208070083  MEMB      32              0.0000000000
      2428        32  POPC      H16Z            2.7835955076      -43.7437986738        3.2102903929  MEMB      32              0.0000000000
      2429        33  POPC      N               2.4717912574       38.8059842412       20.0179533583  MEMB      33              0.0000000000
      2430        33  POPC      C12             2.6401346117       38.8529961940       18.4871197788  MEMB      33              0.0000000000
      2431        33  POPC      H12A            1.6649778471       39.0288998100       18.0575534334  MEMB      33              0.0000000000
      2432        33  POPC      H12B            2.9355068020       37.8796120377       18.1242445131  MEMB      33              0.0000000000
      2433        33  POPC      C13             1.8895147704       40.1479842677       20.5518199742  MEMB      33              0.0000000000
      2434        33  POPC      H13A            1.1481860383       40.3243820798       19.7864994061  MEMB      33              0.0000000000
      2435        33  POPC      H13B            1.4801116547       39.9368496155       21.5286573023  MEMB      33              0.0000000000
      2436        33  POPC      H13C            2.6330913863       40.9307290543       20.5234578617  MEMB      33              0.0000000000
      2437        33  POPC      C14             1.4424936890       37.7545127871       20.3246479530  MEMB      33              0.0000000000
      2438        33  POPC      H14A            1.7721990975       36.7720917004       20.0204381126  MEMB      33              0.0000000000
      2439        33  POPC      H14B            1.2897441119       37.7913679167       21.3931557870  MEMB      33              0.0000000000
      2440        33  POPC      H14C            0.6011274232       38.0733302490       19.7272718005  MEMB      33              0.0000000000
      2441        33  POPC      C15             3.8375963867       38.4506268213       20.5984232255  MEMB      33              0.0000000000
      2442        33  POPC      H15A            4.5535848827       39.0999424267       20.1166042151  MEMB      33              0.0000000000
      2443        33  POPC      H15B            4.1228395171       37.4627899398       20.2679469457  MEMB      33              0.0000000000
      2444        33  POPC      H15C            3.8702080140       38.4777632437       21.6775896437  MEMB      33              0.0000000000
      2445        33  POPC      C11             3.6734871066       39.8265966179       17.9267994020  MEMB      33              0.0000000000
      2446        33  POPC      H11A            3.6050591923       39.8903982306       16.8197457202  MEMB      33              0.0000000000
      2447        33  POPC      H11B            4.6066419614       39.3128254952       18.2423661415  MEMB      33              0.0000000000
      2448        33  POPC      P               4.7618637963       42.1959526464       18.2181621301  MEMB      33              0.0000000000
      2449        33  POPC      O13             5.6304648391       41.6311064061       17.1348852468  MEMB      33              0.0000000000
      2450        33  POPC      O14             5.4134219060       42.3755896211       19.5157006299  MEMB      33              0.0000000000
      2451        33  POPC      O12             3.5195267101       41.1632110333       18.4647760750  MEMB      33              0.0000000000
      2452        33  POPC      O11             4.0202447717       43.5172432550       17.7597122595  MEMB      33              0.0000000000
      2453        33  POPC      C1              3.0337327034       44.2545774608       18.4969620891  MEMB      33              0.0000000000
      2454        33  POPC      HA              3.4372141393       45.1955001677       18.9284574786  MEMB      33              0.0000000000
      2455        33  POPC      HB              2.5681545519       43.6896679259       19.3326863534  MEMB      33              0.0000000000
      2456        33  POPC      C2              1.8738700299       44.6336819397       17.4802032737  MEMB      33              0.0000000000
      2457        33  POPC      HS              1.1605860904       45.2664146471       18.0504631213  MEMB      33              0.0000000000
      2458        33  POPC      O21             1.1881855944       43.4088983933       17.1062504915  MEMB      33              0.0000000000
      2459        33  POPC      C21             0.1238930787       42.9572704524       17.8999127374  MEMB      33              0.0000000000
      2460        33  POPC      O22            -0.1256907928       43.4300853498       18.9527778649  MEMB      33              0.0000000000
      2461        33  POPC      C22            -0.6638851518       41.8727727275       17.2014019506  MEMB      33              0.0000000000
      2462        33  POPC      H2R            -1.2885143176       42.2200733645       16.3507895682  MEMB      33              0.0000000000
      2463        33  POPC      H2S            -1.2307523532       41.3328737822       17.9897493996  MEMB      33              0.0000000000
      2464        33  POPC      C3              2.2504286548       45.4190015513       16.1450734058  MEMB      33              0.0000000000
      2465        33  POPC      HX              2.6944731030       46.3855035061       16.4660392193  MEMB      33              0.0000000000
      2466        33  POPC      HY              1.3042960757       45.6866912133       15.6278728588  MEMB      33              0.0000000000
      2467        33  POPC      O31             2.9800894058       44.6647234972       15.2057621680  MEMB      33              0.0000000000
      2468        33  POPC      C31             3.6211823291       45.4176955771       14.2214324893  MEMB      33              0.0000000000
      2469        33  POPC      O32             3.6642406396       46.5771726145       14.1869914638  MEMB      33              0.0000000000
      2470        33  POPC      C32             4.2374909047       44.4720358067       13.1857157317  MEMB      33              0.0000000000
      2471        33  POPC      H2X             4.8215391080       45.0257236853       12.4197927989  MEMB      33              0.0000000000
      2472        33  POPC      H2Y             3.4859189069       43.9049777186       12.5958809141  MEMB      33              0.0000000000
      2473        33  POPC      C23             0.2600296954       40.7141210885       16.5171199319  MEMB      33              0.0000000000
      2474        33  POPC      H3R             0.8881267732       40.2109869953       17.2830645349  MEMB      33              0.0000000000
      2475        33  POPC      H3S             0.8220345701       41.3034176953       15.7613412894  MEMB      33              0.0000000000
      2476        33  POPC      C24            -0.5837694562       39.6230486990       15.8739109644  MEMB      33              0.0000000000
      2477        33  POPC      H4R            -1.3129136202       40.0247408603       15.1381710481  MEMB      33              0.0000000000
      2478        33  POPC      H4S            -1.2599677645       39.2085118433       16.6518803759  MEMB      33              0.0000000000
      2479        33  POPC      C25             0.2917079219       38.4607043919       15.2859961111  MEMB      33              0.0000000000
      2480        33  POPC      H5R            -0.3693744636       37.6872480190       14.8398387858  MEMB      33              0.0000000000
      2481        33  POPC      H5S             0.8663423633       38.1342170005       16.1790369463  MEMB      33              0.0000000000
      2482        33  POPC      C26             1.3910331324       38.9173838366       14.2280737883  MEMB      33              0.0000000000
      2483        33  POPC      H6R             1.9235999634       37.9902740611       13.9261451434  MEMB      33              0.0000000000
      2484        33  POPC      H6S             2.1863161197       39.5397778282       14.6911849970  MEMB      33              0.0000000000
      2485        33  POPC      C27             0.7891538616       39.4784230034       12.9590297899  MEMB      33              0.0000000000
      2486        33  POPC      H7R            -0.0363572056       40.2001586181       13.1377757749  MEMB      33              0.0000000000
      2487        33  POPC      H7S             0.2912922722       38.6357269368       12.4333700093  MEMB      33              0.0000000000
      2488        33  POPC      C28             1.7707704914       40.0862454105       11.9381317815  MEMB      33              0.0000000000
      2489        33  POPC      H8R             1.4328770380       39.7980434685       10.9197561159  MEMB      33              0.0000000000
      2490        33  POPC      H8S             2.8037722597       39.7207289035       12.1215057779  MEMB      33              0.0000000000
      2491        33  POPC      C29             1.8251120475       41.5673472122       11.9885399578  MEMB      33              0.0000000000
      2492        33  POPC      H91             2.4570861600       42.1333605785       12.6887094518  MEMB      33              0.0000000000
      2493        33  POPC      C210            1.0360747130       42.3608466981       11.1564743202  MEMB      33              0.0000000000
      2494        33  POPC      H101            1.3371429232       43.4040217501       11.3329504691  MEMB      33              0.0000000000
      2495        33  POPC      C211            0.0461535379       41.9589472475       10.1212327794  MEMB      33              0.0000000000
      2496        33  POPC      H11R           -0.9498023089       41.7412022917       10.5627986289  MEMB      33              0.0000000000
      2497        33  POPC      H11S            0.3754359681       41.0005322078        9.6658928804  MEMB      33              0.0000000000
      2498        33  POPC      C212           -0.2301669762       42.9601019882        8.8912187644  MEMB      33              0.0000000000
      2499        33  POPC      H12R           -1.1918104949       43.4531060069        9.1491137679  MEMB      33              0.0000000000
      2500        33  POPC      H12S           -0.5202966585       42.4036678765        7.9744160545  MEMB      33              0.0000000000
      2501        33  POPC      C213            0.8494090660       44.1027362758        8.6479302980  MEMB      33              0.0000000000
      2502        33  POPC      H13R            1.8778206720       43.7252804776        8.4629500375  MEMB      33              0.0000000000
      2503        33  POPC      H13S            0.8382430509       44.7581413347        9.5449476745  MEMB      33              0.0000000000
      2504        33  POPC      C214            0.5146009373       45.1393957328        7.5936114862  MEMB      33              0.0000000000
      2505        33  POPC      H14R            1.1164931660       46.0259235422        7.8870646184  MEMB      33              0.0000000000
      2506        33  POPC      H14S           -0.5551707531       45.4373152254        7.5596459096  MEMB      33              0.0000000000
      2507        33  POPC      C215            0.9914395479       44.6581361203        6.1862030381  MEMB      33              0.0000000000
      2508        33  POPC      H15R            0.3238296269       43.7732974125        6.1108463634  MEMB      33              0.0000000000
      2509        33  POPC      H15S            2.0546109067       44.3643605146        6.0532234567  MEMB      33              0.0000000000
      2510        33  POPC      C216            0.6980858343       45.6533568743        4.9903729266  MEMB      33              0.0000000000
      2511        33  POPC      H16R            1.2061822537       46.6297210036        5.1416078571  MEMB      33              0.0000000000
      2512        33  POPC      H16S           -0.3940001301       45.8570777142        4.9774501021  MEMB      33              0.0000000000
      2513        33  POPC      C217            1.0957797776       44.9894320984        3.7245179943  MEMB      33              0.0000000000
      2514        33  POPC      H17R            0.8992243501       43.8989753505        3.8057012394  MEMB      33              0.0000000000
      2515        33  POPC      H17S            2.1812332685       45.0799559285        3.5056181225  MEMB      33              0.0000000000
      2516        33  POPC      C218            0.3127451008       45.4566204533        2.5230439682  MEMB      33              0.0000000000
      2517        33  POPC      H18R            0.3915750474       46.5547102116        2.3736934565  MEMB      33              0.0000000000
      2518        33  POPC      H18S           -0.7743620533       45.2465635244        2.6146708968  MEMB      33              0.0000000000
      2519        33  POPC      H18T            0.7371126290       45.0223243142        1.5926579466  MEMB      33              0.0000000000
      2520        33  POPC      C33             5.2170425338       43.4556180245       13.9457166117  MEMB      33              0.0000000000
      2521        33  POPC      H3X             4.7607938225       42.9214664589       14.8064375254  MEMB      33              0.0000000000
      2522        33  POPC      H3Y             6.1345430795       44.0199759109       14.2177713205  MEMB      33              0.0000000000
      2523        33  POPC      C34             5.7700061392       42.3373759495       13.0372496891  MEMB      33              0.0000000000
      2524        33  POPC      H4X             4.8844367911       41.6726855913       12.9462847864  MEMB      33              0.0000000000
      2525        33  POPC      H4Y             6.3472225700       41.7940309406       13.8156573872  MEMB      33              0.0000000000
      2526        33  POPC      C35             6.3727199307       42.9152058193       11.8128187714  MEMB      33              0.0000000000
      2527        33  POPC      H5X             6.8056533261       43.8937190761       12.1118194431  MEMB      33              0.0000000000
      2528        33  POPC      H5Y             5.6073000179       43.1680059817       11.0482631629  MEMB      33              0.0000000000
      2529        33  POPC      C36             7.4039907447       42.0111675359       10.9901598114  MEMB      33              0.0000000000
      2530        33  POPC      H6X             8.2004642499       41.7299172000       11.7118583403  MEMB      33              0.0000000000
      2531        33  POPC      H6Y             7.8746877004       42.6549369020       10.2166440403  MEMB      33              0.0000000000
      2532        33  POPC      C37             6.9278867145       40.6448455486       10.4983105482  MEMB      33              0.0000000000
      2533        33  POPC      H7X             6.8380539781       39.8626881197       11.2821985700  MEMB      33              0.0000000000
      2534        33  POPC      H7Y             7.7485228719       40.3270464600        9.8201657830  MEMB      33              0.0000000000
      2535        33  POPC      C38             5.6781526894       40.7365652290        9.5876482050  MEMB      33              0.0000000000
      2536        33  POPC      H8X             5.8082540211       41.5585881023        8.8516632482  MEMB      33              0.0000000000
      2537        33  POPC      H8Y             4.7060959295       40.8289240974       10.1176451070  MEMB      33              0.0000000000
      2538        33  POPC      C39             5.3779222591       39.4219326844        8.7197963832  MEMB      33              0.0000000000
      2539        33  POPC      H9X             4.6351119912       39.6522366712        7.9263770545  MEMB      33              0.0000000000
      2540        33  POPC      H9Y             4.9789010927       38.6386193352        9.3991512596  MEMB      33              0.0000000000
      2541        33  POPC      C310            6.5647559561       38.9312131510        7.8691192572  MEMB      33              0.0000000000
      2542        33  POPC      H10X            7.2830932555       38.5199652317        8.6101904622  MEMB      33              0.0000000000
      2543        33  POPC      H10Y            7.0925289559       39.7572758985        7.3462449056  MEMB      33              0.0000000000
      2544        33  POPC      C311            6.2608151984       37.9191571009        6.7244720788  MEMB      33              0.0000000000
      2545        33  POPC      H11X            5.8974561749       37.0057770507        7.2421872285  MEMB      33              0.0000000000
      2546        33  POPC      H11Y            7.1962598633       37.6555320022        6.1861731618  MEMB      33              0.0000000000
      2547        33  POPC      C312            5.2850646217       38.4486063479        5.6922184051  MEMB      33              0.0000000000
      2548        33  POPC      H12X            4.3695560350       38.8061068322        6.2102520976  MEMB      33              0.0000000000
      2549        33  POPC      H12Y            5.1041925376       37.6276327898        4.9658518191  MEMB      33              0.0000000000
      2550        33  POPC      C313            5.7977187588       39.6601272502        4.9174379814  MEMB      33              0.0000000000
      2551        33  POPC      H13X            6.8162864242       39.5253798821        4.4947277757  MEMB      33              0.0000000000
      2552        33  POPC      H13Y            5.9023489769       40.4762558707        5.6639680799  MEMB      33              0.0000000000
      2553        33  POPC      C314            4.7156023532       39.9300667787        3.8353857367  MEMB      33              0.0000000000
      2554        33  POPC      H14X            3.7374385533       39.8348964978        4.3535154952  MEMB      33              0.0000000000
      2555        33  POPC      H14Y            4.8772179433       39.1420054533        3.0691215765  MEMB      33              0.0000000000
      2556        33  POPC      C315            4.9708283756       41.2293601988        3.0201937673  MEMB      33              0.0000000000
      2557        33  POPC      H15X            5.9796752975       41.3019866632        2.5605474032  MEMB      33              0.0000000000
      2558        33  POPC      H15Y            4.8706494269       42.0655027086        3.7448672680  MEMB      33              0.0000000000
      2559        33  POPC      C316            3.8652535069       41.5180222680        1.9653053403  MEMB      33              0.0000000000
      2560        33  POPC      H16X            2.8615533972       41.4907155827        2.4408693258  MEMB      33              0.0000000000
      2561        33  POPC      H16Y            3.7159310939       40.8472578082        1.0923228522  MEMB      33              0.0000000000
      2562        33  POPC      H16Z            3.9024841171       42.5010548536        1.4489894125  MEMB      33              0.0000000000
      2563        34  POPC      N              -4.8419874920       43.6261122619       17.4335558842  MEMB      34              0.0000000000
      2564        34  POPC      C12            -5.1135177359       43.6593033110       18.9451909334  MEMB      34              0.0000000000
      2565        34  POPC      H12A           -6.1388255020       43.3331193301       19.0387222046  MEMB      34              0.0000000000
      2566        34  POPC      H12B           -5.1729137128       44.6766363330       19.3028301624  MEMB      34              0.0000000000
      2567        34  POPC      C13            -3.3615921565       43.9782861985       17.1174409019  MEMB      34              0.0000000000
      2568        34  POPC      H13A           -3.0821328727       44.9522138191       17.4912955616  MEMB      34              0.0000000000
      2569        34  POPC      H13B           -2.6778172847       43.2907396808       17.5929740498  MEMB      34              0.0000000000
      2570        34  POPC      H13C           -3.1984558141       43.9096928332       16.0520388040  MEMB      34              0.0000000000
      2571        34  POPC      C14            -5.1096138025       42.3587856157       16.8964442904  MEMB      34              0.0000000000
      2572        34  POPC      H14A           -5.0450117555       42.4014880899       15.8192243851  MEMB      34              0.0000000000
      2573        34  POPC      H14B           -4.5328113235       41.6088474294       17.4173010746  MEMB      34              0.0000000000
      2574        34  POPC      H14C           -6.1607290742       42.1209051864       16.9669398706  MEMB      34              0.0000000000
      2575        34  POPC      C15            -5.7473317898       44.6521059323       16.7304785144  MEMB      34              0.0000000000
      2576        34  POPC      H15A           -5.5573920938       45.5730943514       17.2616121471  MEMB      34              0.0000000000
      2577        34  POPC      H15B           -6.8046545480       44.4351013418       16.7675952979  MEMB      34              0.0000000000
      2578        34  POPC      H15C           -5.5268608078       44.6273796140       15.6735104321  MEMB      34              0.0000000000
      2579        34  POPC      C11            -4.1806709942       42.8639840692       19.8731131093  MEMB      34              0.0000000000
      2580        34  POPC      H11A           -4.5796382669       42.7566488756       20.9044352160  MEMB      34              0.0000000000
      2581        34  POPC      H11B           -3.2301600226       43.4390162192       19.8868206433  MEMB      34              0.0000000000
      2582        34  POPC      P              -3.4938594042       40.4272853020       20.4910058826  MEMB      34              0.0000000000
      2583        34  POPC      O13            -4.5092844798       40.4163590960       21.6366924754  MEMB      34              0.0000000000
      2584        34  POPC      O14            -2.0681886748       40.6381876580       20.7915586053  MEMB      34              0.0000000000
      2585        34  POPC      O12            -3.9606706758       41.4779704100       19.3998442036  MEMB      34              0.0000000000
      2586        34  POPC      O11            -3.5856020502       39.0139027531       19.6846751778  MEMB      34              0.0000000000
      2587        34  POPC      C1             -4.6626316433       38.6249891549       18.8587715600  MEMB      34              0.0000000000
      2588        34  POPC      HA             -5.4738065278       39.3703320187       18.7146177411  MEMB      34              0.0000000000
      2589        34  POPC      HB             -5.1455170673       37.7645525976       19.3694489444  MEMB      34              0.0000000000
      2590        34  POPC      C2             -3.9918536381       38.0813245194       17.5551023621  MEMB      34              0.0000000000
      2591        34  POPC      HS             -3.3552153102       37.2506435075       17.9279048540  MEMB      34              0.0000000000
      2592        34  POPC      O21            -3.1854756547       39.1257871968       17.0300640334  MEMB      34              0.0000000000
      2593        34  POPC      C21            -1.9747057264       38.8170701328       16.6557483731  MEMB      34              0.0000000000
      2594        34  POPC      O22            -1.5570017724       37.6933627823       16.4334453492  MEMB      34              0.0000000000
      2595        34  POPC      C22            -1.2341851455       40.0855189337       16.4594516785  MEMB      34              0.0000000000
      2596        34  POPC      H2R            -0.4927324815       40.1018793865       17.2866769045  MEMB      34              0.0000000000
      2597        34  POPC      H2S            -1.8527381280       41.0043501217       16.3730680786  MEMB      34              0.0000000000
      2598        34  POPC      C3             -5.0342604747       37.6203226324       16.5254921680  MEMB      34              0.0000000000
      2599        34  POPC      HX             -5.8926267999       38.3155954556       16.4066483322  MEMB      34              0.0000000000
      2600        34  POPC      HY             -5.4314851349       36.6283746365       16.8297503127  MEMB      34              0.0000000000
      2601        34  POPC      O31            -4.4434118541       37.4067132695       15.2652510195  MEMB      34              0.0000000000
      2602        34  POPC      C31            -5.1532998536       37.6020198785       14.1392871897  MEMB      34              0.0000000000
      2603        34  POPC      O32            -6.3576202067       37.8550017542       14.0916512816  MEMB      34              0.0000000000
      2604        34  POPC      C32            -4.2569866351       37.5012153429       12.9405983775  MEMB      34              0.0000000000
      2605        34  POPC      H2X            -3.4886179880       36.6992217588       12.9677465314  MEMB      34              0.0000000000
      2606        34  POPC      H2Y            -3.6561894949       38.4330759646       12.8698926672  MEMB      34              0.0000000000
      2607        34  POPC      C23            -0.3597525905       40.1292581163       15.2251184359  MEMB      34              0.0000000000
      2608        34  POPC      H3R             0.2707034279       39.2216444974       15.3395002459  MEMB      34              0.0000000000
      2609        34  POPC      H3S             0.4498881066       40.8870885502       15.2921707628  MEMB      34              0.0000000000
      2610        34  POPC      C24            -1.0552157213       40.0250907710       13.8165962148  MEMB      34              0.0000000000
      2611        34  POPC      H4R            -1.4383628176       38.9848815931       13.7425423721  MEMB      34              0.0000000000
      2612        34  POPC      H4S            -0.2564586297       40.1827386172       13.0606498340  MEMB      34              0.0000000000
      2613        34  POPC      C25            -2.2974093541       40.8667284502       13.5147346600  MEMB      34              0.0000000000
      2614        34  POPC      H5R            -3.1635214629       40.6415451352       14.1731142385  MEMB      34              0.0000000000
      2615        34  POPC      H5S            -2.6992585275       40.6208395813       12.5085652304  MEMB      34              0.0000000000
      2616        34  POPC      C26            -1.9848734726       42.3650612221       13.6292101047  MEMB      34              0.0000000000
      2617        34  POPC      H6R            -1.1771110331       42.7290517766       12.9588732103  MEMB      34              0.0000000000
      2618        34  POPC      H6S            -1.4908295167       42.5292720900       14.6106766454  MEMB      34              0.0000000000
      2619        34  POPC      C27            -3.2330910628       43.2570226065       13.5270099573  MEMB      34              0.0000000000
      2620        34  POPC      H7R            -2.8775566820       44.2974369870       13.6865533473  MEMB      34              0.0000000000
      2621        34  POPC      H7S            -3.9624684659       43.1000872310       14.3502359155  MEMB      34              0.0000000000
      2622        34  POPC      C28            -3.9176232108       43.4423967791       12.1215788027  MEMB      34              0.0000000000
      2623        34  POPC      H8R            -3.0927067045       43.4383865103       11.3773897265  MEMB      34              0.0000000000
      2624        34  POPC      H8S            -4.4296242538       44.4282484767       12.1050747762  MEMB      34              0.0000000000
      2625        34  POPC      C29            -4.8835900325       42.3113520998       11.8313699123  MEMB      34              0.0000000000
      2626        34  POPC      H91            -5.6471520493       42.1404349224       12.6045195589  MEMB      34              0.0000000000
      2627        34  POPC      C210           -4.9150079221       41.4374491841       10.7537164962  MEMB      34              0.0000000000
      2628        34  POPC      H101           -5.6279760512       40.6036555255       10.8341191996  MEMB      34              0.0000000000
      2629        34  POPC      C211           -3.9033322326       41.4135234963        9.6233422606  MEMB      34              0.0000000000
      2630        34  POPC      H11R           -3.3883923682       40.4314752862        9.5544997476  MEMB      34              0.0000000000
      2631        34  POPC      H11S           -3.0271796028       42.0769954098        9.7860768355  MEMB      34              0.0000000000
      2632        34  POPC      C212           -4.4371150652       41.7653690556        8.2408099288  MEMB      34              0.0000000000
      2633        34  POPC      H12R           -3.5389916309       41.6353255137        7.5998852732  MEMB      34              0.0000000000
      2634        34  POPC      H12S           -4.8093410738       42.8097893090        8.1704164376  MEMB      34              0.0000000000
      2635        34  POPC      C213           -5.5405710614       40.7397549175        7.9024678356  MEMB      34              0.0000000000
      2636        34  POPC      H13R           -6.3398989696       40.8485638974        8.6663765396  MEMB      34              0.0000000000
      2637        34  POPC      H13S           -5.2044641967       39.6821211193        7.8498944704  MEMB      34              0.0000000000
      2638        34  POPC      C214           -6.2753391793       41.4440091422        6.7041870256  MEMB      34              0.0000000000
      2639        34  POPC      H14R           -6.7674307720       42.3633745861        7.0875058126  MEMB      34              0.0000000000
      2640        34  POPC      H14S           -7.2142625610       40.8712182965        6.5471681121  MEMB      34              0.0000000000
      2641        34  POPC      C215           -5.5629794802       41.6527700599        5.3685839406  MEMB      34              0.0000000000
      2642        34  POPC      H15R           -5.1246521280       40.7024231988        4.9957151919  MEMB      34              0.0000000000
      2643        34  POPC      H15S           -4.7703316726       42.4288713113        5.4293897652  MEMB      34              0.0000000000
      2644        34  POPC      C216           -6.4680904117       42.2535830403        4.2177054684  MEMB      34              0.0000000000
      2645        34  POPC      H16R           -6.7579677481       43.2494088929        4.6159802918  MEMB      34              0.0000000000
      2646        34  POPC      H16S           -7.3208539384       41.5569829296        4.0698408262  MEMB      34              0.0000000000
      2647        34  POPC      C217           -5.7594200595       42.3591373878        2.9042924563  MEMB      34              0.0000000000
      2648        34  POPC      H17R           -4.6882736083       42.5046730799        3.1607782699  MEMB      34              0.0000000000
      2649        34  POPC      H17S           -6.0607997731       43.2429337786        2.3022998126  MEMB      34              0.0000000000
      2650        34  POPC      C218           -5.8559569002       41.0765959472        2.0823935394  MEMB      34              0.0000000000
      2651        34  POPC      H18R           -5.1957010368       41.1527833636        1.1921245752  MEMB      34              0.0000000000
      2652        34  POPC      H18S           -6.8845677596       40.6861973144        1.9278940309  MEMB      34              0.0000000000
      2653        34  POPC      H18T           -5.3527160630       40.2539410066        2.6340349621  MEMB      34              0.0000000000
      2654        34  POPC      C33            -5.0295498659       37.4124129130       11.6649606323  MEMB      34              0.0000000000
      2655        34  POPC      H3X            -5.7774297883       38.2269281863       11.5574359295  MEMB      34              0.0000000000
      2656        34  POPC      H3Y            -5.6629614218       36.4997232350       11.6753723390  MEMB      34              0.0000000000
      2657        34  POPC      C34            -4.0617350306       37.2280124049       10.5171917547  MEMB      34              0.0000000000
      2658        34  POPC      H4X            -3.1995597867       36.6089265738       10.8453796369  MEMB      34              0.0000000000
      2659        34  POPC      H4Y            -3.6465779125       38.1880054163       10.1425194588  MEMB      34              0.0000000000
      2660        34  POPC      C35            -4.7365039415       36.5719566293        9.2966951728  MEMB      34              0.0000000000
      2661        34  POPC      H5X            -5.5502502519       37.2161602938        8.9002867078  MEMB      34              0.0000000000
      2662        34  POPC      H5Y            -5.1488855655       35.6259300694        9.7081509075  MEMB      34              0.0000000000
      2663        34  POPC      C36            -3.7724518655       36.2190349347        8.1598791282  MEMB      34              0.0000000000
      2664        34  POPC      H6X            -4.1896441279       35.4184453027        7.5123237870  MEMB      34              0.0000000000
      2665        34  POPC      H6Y            -2.7684472319       35.8332878573        8.4382581857  MEMB      34              0.0000000000
      2666        34  POPC      C37            -3.4863132629       37.2641486297        7.0010052057  MEMB      34              0.0000000000
      2667        34  POPC      H7X            -4.2893131503       38.0272797750        6.9164877879  MEMB      34              0.0000000000
      2668        34  POPC      H7Y            -3.6646910841       36.8090401548        6.0033185905  MEMB      34              0.0000000000
      2669        34  POPC      C38            -2.0102031167       37.9042214869        7.0518567168  MEMB      34              0.0000000000
      2670        34  POPC      H8X            -1.2261477709       37.1223718559        7.1429012037  MEMB      34              0.0000000000
      2671        34  POPC      H8Y            -2.0565704062       38.6162416834        7.9034424946  MEMB      34              0.0000000000
      2672        34  POPC      C39            -1.8426312435       38.6758958238        5.7864408858  MEMB      34              0.0000000000
      2673        34  POPC      H9X            -0.8931685574       39.2515005954        5.8254365013  MEMB      34              0.0000000000
      2674        34  POPC      H9Y            -2.5799849202       39.4935837663        5.6380593820  MEMB      34              0.0000000000
      2675        34  POPC      C310           -1.9571260804       37.8571484007        4.4211517356  MEMB      34              0.0000000000
      2676        34  POPC      H10X           -3.0075621489       37.5586235087        4.2167308497  MEMB      34              0.0000000000
      2677        34  POPC      H10Y           -1.3160385196       36.9523911520        4.4900087020  MEMB      34              0.0000000000
      2678        34  POPC      C311           -1.4528660167       38.6815543411        3.1846184604  MEMB      34              0.0000000000
      2679        34  POPC      H11X           -1.3324859660       38.0135521937        2.3050716110  MEMB      34              0.0000000000
      2680        34  POPC      H11Y           -0.4560687279       39.0620600608        3.4943465505  MEMB      34              0.0000000000
      2681        34  POPC      C312           -2.3581067079       39.8315238131        2.8759399431  MEMB      34              0.0000000000
      2682        34  POPC      H12X           -2.3688268335       40.5853097992        3.6920353760  MEMB      34              0.0000000000
      2683        34  POPC      H12Y           -3.4408407521       39.5874319601        2.9252068022  MEMB      34              0.0000000000
      2684        34  POPC      C313           -2.0975558261       40.6282060492        1.5628204160  MEMB      34              0.0000000000
      2685        34  POPC      H13X           -3.0630911374       41.1427353621        1.3696309069  MEMB      34              0.0000000000
      2686        34  POPC      H13Y           -1.8003645665       39.9531667778        0.7319654292  MEMB      34              0.0000000000
      2687        34  POPC      C314           -0.9879264130       41.7461100467        1.9061409827  MEMB      34              0.0000000000
      2688        34  POPC      H14X           -0.4124041947       42.0489116709        1.0053603777  MEMB      34              0.0000000000
      2689        34  POPC      H14Y           -0.1477100042       41.3350748323        2.5056474363  MEMB      34              0.0000000000
      2690        34  POPC      C315           -1.5780000290       43.0094128913        2.6467514866  MEMB      34              0.0000000000
      2691        34  POPC      H15X           -0.8214198385       43.7818857277        2.9020804570  MEMB      34              0.0000000000
      2692        34  POPC      H15Y           -2.0312690895       42.6256690348        3.5856915625  MEMB      34              0.0000000000
      2693        34  POPC      C316           -2.5095360930       43.8285013590        1.8412716550  MEMB      34              0.0000000000
      2694        34  POPC      H16X           -3.1363398049       44.4686359972        2.4982832695  MEMB      34              0.0000000000
      2695        34  POPC      H16Y           -3.1806389019       43.1272371746        1.3007435564  MEMB      34              0.0000000000
      2696        34  POPC      H16Z           -2.0329117266       44.4537232407        1.0562576974  MEMB      34              0.0000000000
      2697        35  POPC      N             -28.6352285372      -19.9673340478       20.5436080895  MEMB      35              0.0000000000
      2698        35  POPC      C12           -27.4292622819      -20.8747620727       20.5928547072  MEMB      35              0.0000000000
      2699        35  POPC      H12A          -27.7688881221      -21.7953225897       21.0441003260  MEMB      35              0.0000000000
      2700        35  POPC      H12B          -26.7912972367      -20.3462501562       21.2857296831  MEMB      35              0.0000000000
      2701        35  POPC      C13           -29.4242965062      -20.0895932802       21.8029553459  MEMB      35              0.0000000000
      2702        35  POPC      H13A          -28.8534630496      -19.8893785211       22.6976414386  MEMB      35              0.0000000000
      2703        35  POPC      H13B          -30.2656195560      -19.4232204441       21.6824448503  MEMB      35              0.0000000000
      2704        35  POPC      H13C          -29.8194082679      -21.0914999226       21.8833905955  MEMB      35              0.0000000000
      2705        35  POPC      C14           -28.1630003378      -18.5469389102       20.1866795325  MEMB      35              0.0000000000
      2706        35  POPC      H14A          -27.8642359421      -18.4686177154       19.1517855131  MEMB      35              0.0000000000
      2707        35  POPC      H14B          -29.0817179627      -17.9792536226       20.1771232649  MEMB      35              0.0000000000
      2708        35  POPC      H14C          -27.4583305137      -18.2275488402       20.9402248394  MEMB      35              0.0000000000
      2709        35  POPC      C15           -29.5759340137      -20.5720475083       19.4579198544  MEMB      35              0.0000000000
      2710        35  POPC      H15A          -30.1508388853      -21.3899215847       19.8665356612  MEMB      35              0.0000000000
      2711        35  POPC      H15B          -28.9928149598      -21.1043713292       18.7210322920  MEMB      35              0.0000000000
      2712        35  POPC      H15C          -30.1821175896      -19.7937241236       19.0184267755  MEMB      35              0.0000000000
      2713        35  POPC      C11           -26.7478053039      -21.1900458933       19.1877055172  MEMB      35              0.0000000000
      2714        35  POPC      H11A          -27.3866173937      -21.7431927622       18.4664089290  MEMB      35              0.0000000000
      2715        35  POPC      H11B          -25.9602372588      -21.9318423419       19.4402834943  MEMB      35              0.0000000000
      2716        35  POPC      P             -25.0402455655      -20.1687089563       17.4373966892  MEMB      35              0.0000000000
      2717        35  POPC      O13           -25.1936701325      -21.5185427590       16.9119101083  MEMB      35              0.0000000000
      2718        35  POPC      O14           -23.7110414030      -19.7310895845       17.9219119126  MEMB      35              0.0000000000
      2719        35  POPC      O12           -26.0703582541      -20.0252952712       18.6125046084  MEMB      35              0.0000000000
      2720        35  POPC      O11           -25.6317651604      -19.1151691179       16.3445536397  MEMB      35              0.0000000000
      2721        35  POPC      C1            -26.8893128827      -18.5390126561       16.4720794585  MEMB      35              0.0000000000
      2722        35  POPC      HA            -26.8785788045      -17.7527084982       15.6872663165  MEMB      35              0.0000000000
      2723        35  POPC      HB            -26.9929316352      -18.0447691972       17.4616790879  MEMB      35              0.0000000000
      2724        35  POPC      C2            -28.0826382927      -19.5004552027       16.0965868702  MEMB      35              0.0000000000
      2725        35  POPC      HS            -27.9685620754      -20.3533584675       16.7993410962  MEMB      35              0.0000000000
      2726        35  POPC      O21           -27.7433896809      -19.8881048879       14.7130465169  MEMB      35              0.0000000000
      2727        35  POPC      C21           -28.0558908446      -21.0572953753       14.2322963839  MEMB      35              0.0000000000
      2728        35  POPC      O22           -28.6874940235      -21.9549576036       14.7422789004  MEMB      35              0.0000000000
      2729        35  POPC      C22           -27.6105472561      -21.1738428367       12.7709869521  MEMB      35              0.0000000000
      2730        35  POPC      H2R           -26.5006958478      -21.1873550282       12.8196501907  MEMB      35              0.0000000000
      2731        35  POPC      H2S           -27.8756893496      -20.2731917908       12.1769761391  MEMB      35              0.0000000000
      2732        35  POPC      C3            -29.5341462468      -18.7988911867       16.0888956422  MEMB      35              0.0000000000
      2733        35  POPC      HX            -29.8001473720      -18.5358956384       17.1350303246  MEMB      35              0.0000000000
      2734        35  POPC      HY            -30.2826823735      -19.4922047286       15.6492016690  MEMB      35              0.0000000000
      2735        35  POPC      O31           -29.4659395197      -17.5739631989       15.3199335057  MEMB      35              0.0000000000
      2736        35  POPC      C31           -29.6897580240      -17.6870453739       13.9913701811  MEMB      35              0.0000000000
      2737        35  POPC      O32           -30.0347587948      -18.7081465551       13.3980470009  MEMB      35              0.0000000000
      2738        35  POPC      C32           -29.3737791569      -16.3869662184       13.2620376824  MEMB      35              0.0000000000
      2739        35  POPC      H2X           -29.1088270449      -15.7612225465       14.1409949350  MEMB      35              0.0000000000
      2740        35  POPC      H2Y           -30.2973087319      -16.0954890918       12.7175606766  MEMB      35              0.0000000000
      2741        35  POPC      C23           -28.0872575346      -22.4739316381       12.1117645872  MEMB      35              0.0000000000
      2742        35  POPC      H3R           -29.1931125305      -22.4367677772       12.2118863327  MEMB      35              0.0000000000
      2743        35  POPC      H3S           -27.7356059253      -23.3844980837       12.6423596141  MEMB      35              0.0000000000
      2744        35  POPC      C24           -27.6753097525      -22.7057582394       10.6879289499  MEMB      35              0.0000000000
      2745        35  POPC      H4R           -27.9499290599      -21.7989569519       10.1077428164  MEMB      35              0.0000000000
      2746        35  POPC      H4S           -28.3878127374      -23.4883989818       10.3500912835  MEMB      35              0.0000000000
      2747        35  POPC      C25           -26.1643846918      -22.9764400987       10.4181455039  MEMB      35              0.0000000000
      2748        35  POPC      H5R           -25.9635841151      -24.0140011095       10.7608805599  MEMB      35              0.0000000000
      2749        35  POPC      H5S           -25.5825768517      -22.1632537533       10.9024476896  MEMB      35              0.0000000000
      2750        35  POPC      C26           -25.7685199934      -23.0238321514        8.8633127456  MEMB      35              0.0000000000
      2751        35  POPC      H6R           -24.6698871489      -23.1820062251        8.8152732949  MEMB      35              0.0000000000
      2752        35  POPC      H6S           -26.0972222869      -22.0582231612        8.4229997710  MEMB      35              0.0000000000
      2753        35  POPC      C27           -26.5213152124      -24.1229372286        8.0195922227  MEMB      35              0.0000000000
      2754        35  POPC      H7R           -27.6042965967      -23.8764301584        8.0461717685  MEMB      35              0.0000000000
      2755        35  POPC      H7S           -26.2249899392      -25.0934248779        8.4719931032  MEMB      35              0.0000000000
      2756        35  POPC      C28           -26.0617737166      -24.1211827792        6.5691333141  MEMB      35              0.0000000000
      2757        35  POPC      H8R           -26.6174848798      -24.9830324216        6.1416742246  MEMB      35              0.0000000000
      2758        35  POPC      H8S           -24.9779926642      -24.3443649100        6.4694872644  MEMB      35              0.0000000000
      2759        35  POPC      C29           -26.3538635188      -22.8762496028        5.7180540631  MEMB      35              0.0000000000
      2760        35  POPC      H91           -27.2531982260      -22.2914834716        5.9614584347  MEMB      35              0.0000000000
      2761        35  POPC      C210          -25.5299857687      -22.3358123679        4.7535054173  MEMB      35              0.0000000000
      2762        35  POPC      H101          -25.8742676611      -21.4388339349        4.2178746650  MEMB      35              0.0000000000
      2763        35  POPC      C211          -24.1981720910      -22.9562532187        4.3656269909  MEMB      35              0.0000000000
      2764        35  POPC      H11R          -23.4753670909      -22.9172539780        5.2084513751  MEMB      35              0.0000000000
      2765        35  POPC      H11S          -23.5900468088      -22.4333890761        3.5967851164  MEMB      35              0.0000000000
      2766        35  POPC      C212          -24.3281109217      -24.5307288426        3.9332869472  MEMB      35              0.0000000000
      2767        35  POPC      H12R          -24.4742308129      -25.2099881250        4.8002224885  MEMB      35              0.0000000000
      2768        35  POPC      H12S          -23.2968987835      -24.7232478755        3.5674199051  MEMB      35              0.0000000000
      2769        35  POPC      C213          -25.2481127119      -24.7817560210        2.7256918488  MEMB      35              0.0000000000
      2770        35  POPC      H13R          -26.2983259297      -24.5431195089        2.9985024429  MEMB      35              0.0000000000
      2771        35  POPC      H13S          -25.0635965831      -25.8551998925        2.5066190731  MEMB      35              0.0000000000
      2772        35  POPC      C214          -25.0187571216      -24.0471852456        1.3724219921  MEMB      35              0.0000000000
      2773        35  POPC      H14R          -23.9637021698      -24.1735970172        1.0480766647  MEMB      35              0.0000000000
      2774        35  POPC      H14S          -25.0663716240      -22.9467437248        1.5176194097  MEMB      35              0.0000000000
      2775        35  POPC      C215          -25.9387898194      -24.5168782310        0.2730140610  MEMB      35              0.0000000000
      2776        35  POPC      H15R          -25.8806984266      -23.8184916747       -0.5890779081  MEMB      35              0.0000000000
      2777        35  POPC      H15S          -26.9930765632      -24.4329873271        0.6132535899  MEMB      35              0.0000000000
      2778        35  POPC      C216          -25.9205030778      -26.0081562412       -0.2078192273  MEMB      35              0.0000000000
      2779        35  POPC      H16R          -26.0243579684      -26.6046115698        0.7237266567  MEMB      35              0.0000000000
      2780        35  POPC      H16S          -24.9003034534      -26.1935524511       -0.6067446195  MEMB      35              0.0000000000
      2781        35  POPC      C217          -26.9570721090      -26.3506276420       -1.3232150541  MEMB      35              0.0000000000
      2782        35  POPC      H17R          -27.9796477817      -26.2700764597       -0.8963995517  MEMB      35              0.0000000000
      2783        35  POPC      H17S          -26.8376577234      -27.4317600868       -1.5495181411  MEMB      35              0.0000000000
      2784        35  POPC      C218          -26.7738772736      -25.5854744325       -2.6604052272  MEMB      35              0.0000000000
      2785        35  POPC      H18R          -27.3257960596      -24.6212856230       -2.6535931324  MEMB      35              0.0000000000
      2786        35  POPC      H18S          -27.2201324989      -26.2082774790       -3.4649507242  MEMB      35              0.0000000000
      2787        35  POPC      H18T          -25.7284992996      -25.3303016672       -2.9367982365  MEMB      35              0.0000000000
      2788        35  POPC      C33           -28.2531920274      -16.5316590885       12.1767988962  MEMB      35              0.0000000000
      2789        35  POPC      H3X           -28.1137769320      -15.5584394344       11.6593741078  MEMB      35              0.0000000000
      2790        35  POPC      H3Y           -28.5378012731      -17.1833364244       11.3231973309  MEMB      35              0.0000000000
      2791        35  POPC      C34           -26.9103520412      -17.0108375671       12.6897715035  MEMB      35              0.0000000000
      2792        35  POPC      H4X           -27.0459550927      -18.0787242360       12.9646373647  MEMB      35              0.0000000000
      2793        35  POPC      H4Y           -26.5871873688      -16.4223257819       13.5749495427  MEMB      35              0.0000000000
      2794        35  POPC      C35           -25.6847181333      -16.9328162635       11.7306202566  MEMB      35              0.0000000000
      2795        35  POPC      H5X           -24.7813856677      -17.3583230318       12.2177090666  MEMB      35              0.0000000000
      2796        35  POPC      H5Y           -25.5558764357      -15.9095257078       11.3175856566  MEMB      35              0.0000000000
      2797        35  POPC      C36           -25.9281623563      -17.6817416565       10.4304077402  MEMB      35              0.0000000000
      2798        35  POPC      H6X           -26.8451795386      -17.4050826202        9.8675045248  MEMB      35              0.0000000000
      2799        35  POPC      H6Y           -25.8674304655      -18.7628705052       10.6789898002  MEMB      35              0.0000000000
      2800        35  POPC      C37           -24.8343964167      -17.4412189120        9.3950013022  MEMB      35              0.0000000000
      2801        35  POPC      H7X           -23.9063135542      -17.1325479207        9.9219790263  MEMB      35              0.0000000000
      2802        35  POPC      H7Y           -25.2479780943      -16.5772979408        8.8320522689  MEMB      35              0.0000000000
      2803        35  POPC      C38           -24.4383503249      -18.6054900561        8.4575346924  MEMB      35              0.0000000000
      2804        35  POPC      H8X           -23.9597379404      -19.4183499225        9.0444843178  MEMB      35              0.0000000000
      2805        35  POPC      H8Y           -23.7184447396      -18.2738625466        7.6790229546  MEMB      35              0.0000000000
      2806        35  POPC      C39           -25.5762189930      -19.4231964708        7.8050666630  MEMB      35              0.0000000000
      2807        35  POPC      H9X           -26.1297116137      -19.8860184807        8.6499117903  MEMB      35              0.0000000000
      2808        35  POPC      H9Y           -25.1002133984      -20.2572602534        7.2464277603  MEMB      35              0.0000000000
      2809        35  POPC      C310          -26.4757943603      -18.5028565052        6.9051679569  MEMB      35              0.0000000000
      2810        35  POPC      H10X          -25.8532290229      -18.1479372904        6.0561891932  MEMB      35              0.0000000000
      2811        35  POPC      H10Y          -26.7076441219      -17.5449178674        7.4179258468  MEMB      35              0.0000000000
      2812        35  POPC      C311          -27.7509046391      -19.2702942847        6.5846830626  MEMB      35              0.0000000000
      2813        35  POPC      H11X          -28.1649674399      -19.6145944998        7.5564500943  MEMB      35              0.0000000000
      2814        35  POPC      H11Y          -27.5988075785      -20.1992097639        5.9945101529  MEMB      35              0.0000000000
      2815        35  POPC      C312          -28.7224371894      -18.4861728297        5.8123366133  MEMB      35              0.0000000000
      2816        35  POPC      H12X          -28.2377876549      -17.5703820655        5.4113837765  MEMB      35              0.0000000000
      2817        35  POPC      H12Y          -29.4743533829      -18.1938258218        6.5761927349  MEMB      35              0.0000000000
      2818        35  POPC      C313          -29.4482674226      -19.2163276496        4.6446973786  MEMB      35              0.0000000000
      2819        35  POPC      H13X          -30.4112601849      -18.6775110029        4.5156917137  MEMB      35              0.0000000000
      2820        35  POPC      H13Y          -29.7382326437      -20.2536579049        4.9170699690  MEMB      35              0.0000000000
      2821        35  POPC      C314          -28.6561745499      -19.2912562283        3.2395690819  MEMB      35              0.0000000000
      2822        35  POPC      H14X          -29.1526929297      -20.0400816043        2.5860784837  MEMB      35              0.0000000000
      2823        35  POPC      H14Y          -27.6437222633      -19.6572916278        3.5139407754  MEMB      35              0.0000000000
      2824        35  POPC      C315          -28.3344164723      -17.9899463996        2.5133997264  MEMB      35              0.0000000000
      2825        35  POPC      H15X          -27.6864505352      -18.1853594953        1.6323339981  MEMB      35              0.0000000000
      2826        35  POPC      H15Y          -27.8401544408      -17.3933271664        3.3096850195  MEMB      35              0.0000000000
      2827        35  POPC      C316          -29.4954796395      -17.1840607097        1.9993884219  MEMB      35              0.0000000000
      2828        35  POPC      H16X          -29.0525999486      -16.1954836485        1.7526225058  MEMB      35              0.0000000000
      2829        35  POPC      H16Y          -30.1823674502      -17.0936196909        2.8679082216  MEMB      35              0.0000000000
      2830        35  POPC      H16Z          -29.8959843232      -17.7301039062        1.1186194740  MEMB      35              0.0000000000
      2831        36  POPC      N              28.6795769765       20.8863676238       19.3881575739  MEMB      36              0.0000000000
      2832        36  POPC      C12            27.6727377149       20.7716799187       18.2635536675  MEMB      36              0.0000000000
      2833        36  POPC      H12A           28.0251293783       21.2184758655       17.3456247137  MEMB      36              0.0000000000
      2834        36  POPC      H12B           26.7984703328       21.3546632818       18.5129266175  MEMB      36              0.0000000000
      2835        36  POPC      C13            28.0923461391       20.4444760846       20.7495006066  MEMB      36              0.0000000000
      2836        36  POPC      H13A           27.7216392164       19.4301467914       20.7388979859  MEMB      36              0.0000000000
      2837        36  POPC      H13B           28.9102187544       20.4749384729       21.4541681953  MEMB      36              0.0000000000
      2838        36  POPC      H13C           27.2613066914       21.0896934416       20.9933612495  MEMB      36              0.0000000000
      2839        36  POPC      C14            29.9270527623       20.0127856680       19.1314331747  MEMB      36              0.0000000000
      2840        36  POPC      H14A           30.5231159454       20.0150557257       20.0320460987  MEMB      36              0.0000000000
      2841        36  POPC      H14B           29.6205672012       18.9889292987       18.9759190854  MEMB      36              0.0000000000
      2842        36  POPC      H14C           30.5121453179       20.3360489699       18.2831599560  MEMB      36              0.0000000000
      2843        36  POPC      C15            29.0751485658       22.3263983453       19.4301294953  MEMB      36              0.0000000000
      2844        36  POPC      H15A           29.4400832682       22.5670903482       20.4176972010  MEMB      36              0.0000000000
      2845        36  POPC      H15B           28.3517989707       23.0835173392       19.1656749211  MEMB      36              0.0000000000
      2846        36  POPC      H15C           29.8157627765       22.4811470314       18.6594521551  MEMB      36              0.0000000000
      2847        36  POPC      C11            27.0403336386       19.4071420283       17.7867786509  MEMB      36              0.0000000000
      2848        36  POPC      H11A           27.8474159942       18.6439463239       17.7650680899  MEMB      36              0.0000000000
      2849        36  POPC      H11B           26.8139222709       19.5942372993       16.7153057835  MEMB      36              0.0000000000
      2850        36  POPC      P              24.8469486691       20.0448841441       18.9310598283  MEMB      36              0.0000000000
      2851        36  POPC      O13            25.1355044331       21.2187828575       19.7716982474  MEMB      36              0.0000000000
      2852        36  POPC      O14            23.7270985689       19.1494908724       19.3467804346  MEMB      36              0.0000000000
      2853        36  POPC      O12            26.1066939344       18.9853057536       18.7361280943  MEMB      36              0.0000000000
      2854        36  POPC      O11            24.6087497954       20.6134755063       17.4647802597  MEMB      36              0.0000000000
      2855        36  POPC      C1             23.7504607841       19.8905559706       16.6186304759  MEMB      36              0.0000000000
      2856        36  POPC      HA             22.7034907150       20.2390500177       16.7479609285  MEMB      36              0.0000000000
      2857        36  POPC      HB             23.7896092408       18.7862030875       16.7334914045  MEMB      36              0.0000000000
      2858        36  POPC      C2             24.1536972523       20.2281789266       15.1447761842  MEMB      36              0.0000000000
      2859        36  POPC      HS             23.3081268189       20.1044879842       14.4348241185  MEMB      36              0.0000000000
      2860        36  POPC      O21            25.2090157329       19.2882750009       14.7682902688  MEMB      36              0.0000000000
      2861        36  POPC      C21            25.7497021455       19.4615011238       13.5838787240  MEMB      36              0.0000000000
      2862        36  POPC      O22            25.4204317083       20.3206961740       12.7337768875  MEMB      36              0.0000000000
      2863        36  POPC      C22            26.5037474820       18.2234493587       13.3295896307  MEMB      36              0.0000000000
      2864        36  POPC      H2R            25.8706997311       17.3608382752       13.6287110362  MEMB      36              0.0000000000
      2865        36  POPC      H2S            27.4628520383       18.2075492447       13.8901130879  MEMB      36              0.0000000000
      2866        36  POPC      C3             24.5168216972       21.6522957687       14.8946831621  MEMB      36              0.0000000000
      2867        36  POPC      HX             23.7413408816       22.2070261292       15.4649681773  MEMB      36              0.0000000000
      2868        36  POPC      HY             24.5181974642       22.0198335688       13.8462392075  MEMB      36              0.0000000000
      2869        36  POPC      O31            25.8755169152       21.9479893978       15.3174599930  MEMB      36              0.0000000000
      2870        36  POPC      C31            26.0268618722       23.2734760683       15.4912504439  MEMB      36              0.0000000000
      2871        36  POPC      O32            25.2654872996       24.1762951253       15.4557619125  MEMB      36              0.0000000000
      2872        36  POPC      C32            27.5840350900       23.5518899784       15.6421296378  MEMB      36              0.0000000000
      2873        36  POPC      H2X            27.8382537998       23.0915937590       16.6208129985  MEMB      36              0.0000000000
      2874        36  POPC      H2Y            27.8933415805       24.6186059950       15.6144250240  MEMB      36              0.0000000000
      2875        36  POPC      C23            26.7861493849       18.1592219887       11.8121190037  MEMB      36              0.0000000000
      2876        36  POPC      H3R            27.0658549709       19.1301369350       11.3501558663  MEMB      36              0.0000000000
      2877        36  POPC      H3S            25.9205409124       17.6052940364       11.3899735457  MEMB      36              0.0000000000
      2878        36  POPC      C24            27.8749986352       17.0935891643       11.5875179337  MEMB      36              0.0000000000
      2879        36  POPC      H4R            27.5495080892       16.1496405848       12.0746913222  MEMB      36              0.0000000000
      2880        36  POPC      H4S            28.7773644383       17.3751670407       12.1712733854  MEMB      36              0.0000000000
      2881        36  POPC      C25            28.2777155007       16.6947721899       10.1156476468  MEMB      36              0.0000000000
      2882        36  POPC      H5R            27.7511006309       17.4233333925        9.4628101558  MEMB      36              0.0000000000
      2883        36  POPC      H5S            27.7713075246       15.7391541483        9.8613523614  MEMB      36              0.0000000000
      2884        36  POPC      C26            29.7889336310       16.7524958926        9.8434820348  MEMB      36              0.0000000000
      2885        36  POPC      H6R            29.9468577395       16.2210491829        8.8807019946  MEMB      36              0.0000000000
      2886        36  POPC      H6S            30.4888094698       16.1373421339       10.4485280283  MEMB      36              0.0000000000
      2887        36  POPC      C27            30.3341281389       18.1601550632        9.5710182981  MEMB      36              0.0000000000
      2888        36  POPC      H7R            30.5681062905       18.5809560004       10.5722678522  MEMB      36              0.0000000000
      2889        36  POPC      H7S            29.6231266670       18.8459213831        9.0625666874  MEMB      36              0.0000000000
      2890        36  POPC      C28            31.6672473650       18.2075639465        8.7877283964  MEMB      36              0.0000000000
      2891        36  POPC      H8R            31.5979485525       17.6873118320        7.8085158151  MEMB      36              0.0000000000
      2892        36  POPC      H8S            32.3682921490       17.5781986399        9.3765886486  MEMB      36              0.0000000000
      2893        36  POPC      C29            32.1102445276       19.6740400329        8.8255613870  MEMB      36              0.0000000000
      2894        36  POPC      H91            32.4170187900       20.1998057218        9.7417821711  MEMB      36              0.0000000000
      2895        36  POPC      C210           32.3301078197       20.3935922550        7.7093985411  MEMB      36              0.0000000000
      2896        36  POPC      H101           32.5439595946       21.4694492643        7.7918564474  MEMB      36              0.0000000000
      2897        36  POPC      C211           32.0972220397       19.8828438414        6.3948037077  MEMB      36              0.0000000000
      2898        36  POPC      H11R           32.4618785493       18.8350248405        6.3363067050  MEMB      36              0.0000000000
      2899        36  POPC      H11S           32.6226769767       20.4611815517        5.6050299889  MEMB      36              0.0000000000
      2900        36  POPC      C212           30.5863633318       19.8787751461        5.9115770702  MEMB      36              0.0000000000
      2901        36  POPC      H12R           30.0131741364       20.6808827099        6.4238251800  MEMB      36              0.0000000000
      2902        36  POPC      H12S           30.2620416364       18.8627007364        6.2225900837  MEMB      36              0.0000000000
      2903        36  POPC      C213           30.5806060805       20.0496973392        4.3947991763  MEMB      36              0.0000000000
      2904        36  POPC      H13R           31.0427845416       19.1453711607        3.9443478837  MEMB      36              0.0000000000
      2905        36  POPC      H13S           31.1946587006       20.9314321594        4.1123020852  MEMB      36              0.0000000000
      2906        36  POPC      C214           29.1829092917       20.3691339119        3.8110693253  MEMB      36              0.0000000000
      2907        36  POPC      H14R           28.9210730063       21.3901465183        4.1622035729  MEMB      36              0.0000000000
      2908        36  POPC      H14S           28.3346193757       19.6931184066        4.0513364199  MEMB      36              0.0000000000
      2909        36  POPC      C215           29.2851963544       20.2962214817        2.2448467291  MEMB      36              0.0000000000
      2910        36  POPC      H15R           29.7083295687       19.3106246267        1.9552299217  MEMB      36              0.0000000000
      2911        36  POPC      H15S           29.9757673800       21.1454489803        2.0544635886  MEMB      36              0.0000000000
      2912        36  POPC      C216           27.9350142460       20.4970765341        1.5059386794  MEMB      36              0.0000000000
      2913        36  POPC      H16R           27.3472727253       19.5770644653        1.7119932870  MEMB      36              0.0000000000
      2914        36  POPC      H16S           28.1377701149       20.5436337492        0.4145879891  MEMB      36              0.0000000000
      2915        36  POPC      C217           27.0338211507       21.7079258128        2.0436159551  MEMB      36              0.0000000000
      2916        36  POPC      H17R           27.5689466371       22.6676779146        1.8797938673  MEMB      36              0.0000000000
      2917        36  POPC      H17S           26.9455345993       21.5474548638        3.1394146479  MEMB      36              0.0000000000
      2918        36  POPC      C218           25.7406387162       21.6360705032        1.3093224590  MEMB      36              0.0000000000
      2919        36  POPC      H18R           25.3472644527       20.5970751724        1.3174655273  MEMB      36              0.0000000000
      2920        36  POPC      H18S           25.7290335321       21.9331308801        0.2388357376  MEMB      36              0.0000000000
      2921        36  POPC      H18T           24.9672321263       22.2918942168        1.7632578047  MEMB      36              0.0000000000
      2922        36  POPC      C33            28.4737019219       22.7238531971       14.6155190217  MEMB      36              0.0000000000
      2923        36  POPC      H3X            28.1321654107       21.7115980540       14.3105378972  MEMB      36              0.0000000000
      2924        36  POPC      H3Y            29.5155575886       22.6201761781       14.9871489641  MEMB      36              0.0000000000
      2925        36  POPC      C34            28.5999093453       23.5701126378       13.2844252204  MEMB      36              0.0000000000
      2926        36  POPC      H4X            29.5210796645       24.1902261707       13.3194306493  MEMB      36              0.0000000000
      2927        36  POPC      H4Y            27.7162738865       24.2413052892       13.2295632442  MEMB      36              0.0000000000
      2928        36  POPC      C35            28.5941677448       22.7480901830       12.0210626415  MEMB      36              0.0000000000
      2929        36  POPC      H5X            27.6540423808       22.1571258662       12.0563658568  MEMB      36              0.0000000000
      2930        36  POPC      H5Y            29.4703101190       22.0668359740       11.9701881525  MEMB      36              0.0000000000
      2931        36  POPC      C36            28.4398327474       23.5996472708       10.7074382267  MEMB      36              0.0000000000
      2932        36  POPC      H6X            29.3825462941       24.1816865034       10.6247185149  MEMB      36              0.0000000000
      2933        36  POPC      H6Y            27.6078365509       24.3359165852       10.7108101433  MEMB      36              0.0000000000
      2934        36  POPC      C37            28.2663109610       22.7365755726        9.4517628291  MEMB      36              0.0000000000
      2935        36  POPC      H7X            29.1552307429       22.0855580345        9.3092196446  MEMB      36              0.0000000000
      2936        36  POPC      H7Y            28.2408528291       23.3056205598        8.4978970320  MEMB      36              0.0000000000
      2937        36  POPC      C38            27.1754827707       21.6937962715        9.5060997959  MEMB      36              0.0000000000
      2938        36  POPC      H8X            26.2120690584       22.1826816860        9.7652255330  MEMB      36              0.0000000000
      2939        36  POPC      H8Y            27.3913759516       20.9307714083       10.2842408054  MEMB      36              0.0000000000
      2940        36  POPC      C39            26.9583690975       20.9600821103        8.1810456669  MEMB      36              0.0000000000
      2941        36  POPC      H9X            27.8442349915       20.3024595225        8.0502988590  MEMB      36              0.0000000000
      2942        36  POPC      H9Y            26.9953412245       21.6877864484        7.3423564507  MEMB      36              0.0000000000
      2943        36  POPC      C310           25.6514764521       20.2478764267        8.2143248556  MEMB      36              0.0000000000
      2944        36  POPC      H10X           24.8343333836       20.9983753332        8.1564504314  MEMB      36              0.0000000000
      2945        36  POPC      H10Y           25.5783880057       19.7369465517        9.1981592633  MEMB      36              0.0000000000
      2946        36  POPC      C311           25.4387615678       19.2367508672        7.0696551126  MEMB      36              0.0000000000
      2947        36  POPC      H11X           24.3536285399       19.0421590751        7.2072839342  MEMB      36              0.0000000000
      2948        36  POPC      H11Y           26.0525680911       18.3146043215        7.1545562337  MEMB      36              0.0000000000
      2949        36  POPC      C312           25.8023789788       19.8731528699        5.7868361177  MEMB      36              0.0000000000
      2950        36  POPC      H12X           26.9131567473       19.8855058820        5.7683678138  MEMB      36              0.0000000000
      2951        36  POPC      H12Y           25.5349716689       20.9510116687        5.7546643717  MEMB      36              0.0000000000
      2952        36  POPC      C313           25.1446053205       19.1910497824        4.4953530907  MEMB      36              0.0000000000
      2953        36  POPC      H13X           25.8280083234       19.4247531683        3.6511585288  MEMB      36              0.0000000000
      2954        36  POPC      H13Y           24.0999490633       19.5605566138        4.4148612042  MEMB      36              0.0000000000
      2955        36  POPC      C314           24.9965237672       17.6480325138        4.6645170958  MEMB      36              0.0000000000
      2956        36  POPC      H14X           24.4045567779       17.3321632514        5.5500241066  MEMB      36              0.0000000000
      2957        36  POPC      H14Y           26.0296468455       17.3005755810        4.8795784950  MEMB      36              0.0000000000
      2958        36  POPC      C315           24.3554988699       16.8303739164        3.5308865738  MEMB      36              0.0000000000
      2959        36  POPC      H15X           23.2657972707       17.0468215883        3.5355146459  MEMB      36              0.0000000000
      2960        36  POPC      H15Y           24.4306605110       15.7383858430        3.7212378162  MEMB      36              0.0000000000
      2961        36  POPC      C316           24.8948217735       17.0819803077        2.0916474800  MEMB      36              0.0000000000
      2962        36  POPC      H16X           24.2547517852       16.8069676346        1.2261990120  MEMB      36              0.0000000000
      2963        36  POPC      H16Y           25.7791854647       16.4254851076        1.9459211388  MEMB      36              0.0000000000
      2964        36  POPC      H16Z           25.2574525820       18.1283536191        2.0026384520  MEMB      36              0.0000000000
      2965        37  POPC      N              20.5424282162      -26.4648862004       20.8903178327  MEMB      37              0.0000000000
      2966        37  POPC      C12            19.3374552578      -25.8032839918       20.1626481336  MEMB      37              0.0000000000
      2967        37  POPC      H12A           19.5211972020      -24.7406390499       20.2211702842  MEMB      37              0.0000000000
      2968        37  POPC      H12B           18.4962880417      -25.9968662553       20.8117735326  MEMB      37              0.0000000000
      2969        37  POPC      C13            20.2907225808      -27.8936396955       21.0235088437  MEMB      37              0.0000000000
      2970        37  POPC      H13A           20.1165036229      -28.2976007590       20.0371706178  MEMB      37              0.0000000000
      2971        37  POPC      H13B           21.1590761122      -28.4054550501       21.4113328193  MEMB      37              0.0000000000
      2972        37  POPC      H13C           19.3971898974      -28.0711782474       21.6035773761  MEMB      37              0.0000000000
      2973        37  POPC      C14            21.8947638089      -26.2855654421       20.2061189810  MEMB      37              0.0000000000
      2974        37  POPC      H14A           22.2311292470      -25.2674571103       20.3353999055  MEMB      37              0.0000000000
      2975        37  POPC      H14B           22.5423919905      -27.0151359607       20.6694812378  MEMB      37              0.0000000000
      2976        37  POPC      H14C           21.7758080568      -26.4794765910       19.1503501241  MEMB      37              0.0000000000
      2977        37  POPC      C15            20.6363758026      -25.7719192775       22.2790083618  MEMB      37              0.0000000000
      2978        37  POPC      H15A           19.8342886005      -26.1857670053       22.8721237904  MEMB      37              0.0000000000
      2979        37  POPC      H15B           20.6056465582      -24.6926291581       22.3032697627  MEMB      37              0.0000000000
      2980        37  POPC      H15C           21.5639471760      -26.0910468433       22.7308590389  MEMB      37              0.0000000000
      2981        37  POPC      C11            18.9891861637      -26.1392426088       18.6929887300  MEMB      37              0.0000000000
      2982        37  POPC      H11A           19.7862687980      -25.7015856731       18.0546810291  MEMB      37              0.0000000000
      2983        37  POPC      H11B           18.0963440905      -25.5529977865       18.3872585677  MEMB      37              0.0000000000
      2984        37  POPC      P              18.5993000772      -28.1715219878       17.0935523580  MEMB      37              0.0000000000
      2985        37  POPC      O13            17.5825558944      -27.3024844808       16.4008870688  MEMB      37              0.0000000000
      2986        37  POPC      O14            18.2024669407      -29.5414728850       17.3113346683  MEMB      37              0.0000000000
      2987        37  POPC      O12            18.7830830281      -27.5496749312       18.5217898895  MEMB      37              0.0000000000
      2988        37  POPC      O11            20.0505102289      -28.0529171981       16.4178451293  MEMB      37              0.0000000000
      2989        37  POPC      C1             21.2659740069      -28.1467155073       17.1562980061  MEMB      37              0.0000000000
      2990        37  POPC      HA             21.1533502711      -28.6877253137       18.1201160846  MEMB      37              0.0000000000
      2991        37  POPC      HB             21.5963309883      -27.1164888332       17.4089206981  MEMB      37              0.0000000000
      2992        37  POPC      C2             22.2769295586      -29.0314733154       16.3051967928  MEMB      37              0.0000000000
      2993        37  POPC      HS             23.2851231459      -28.8732908062       16.7443378678  MEMB      37              0.0000000000
      2994        37  POPC      O21            22.3210769602      -28.4574971880       14.9432449987  MEMB      37              0.0000000000
      2995        37  POPC      C21            22.9815376731      -27.2893366179       14.8159819001  MEMB      37              0.0000000000
      2996        37  POPC      O22            23.3967156260      -26.6404858623       15.7728247171  MEMB      37              0.0000000000
      2997        37  POPC      C22            23.0832823724      -26.9860509981       13.3520689139  MEMB      37              0.0000000000
      2998        37  POPC      H2R            22.1343675141      -26.8996385787       12.7807418447  MEMB      37              0.0000000000
      2999        37  POPC      H2S            23.5325131085      -27.7669767046       12.7019398177  MEMB      37              0.0000000000
      3000        37  POPC      C3             21.7721544186      -30.5354034829       16.3118001597  MEMB      37              0.0000000000
      3001        37  POPC      HX             21.8417027493      -30.9309917772       17.3476542806  MEMB      37              0.0000000000
      3002        37  POPC      HY             22.5288163771      -31.0620326764       15.6917633381  MEMB      37              0.0000000000
      3003        37  POPC      O31            20.4129634882      -30.8488814402       15.8560794326  MEMB      37              0.0000000000
      3004        37  POPC      C31            20.3655845907      -30.9303596714       14.5041398239  MEMB      37              0.0000000000
      3005        37  POPC      O32            21.2934736242      -30.9761471505       13.7303907220  MEMB      37              0.0000000000
      3006        37  POPC      C32            18.8841760575      -30.9638257630       14.0999167017  MEMB      37              0.0000000000
      3007        37  POPC      H2X            18.7213837695      -30.1676194600       13.3423710645  MEMB      37              0.0000000000
      3008        37  POPC      H2Y            18.2104676450      -30.6967622446       14.9420061585  MEMB      37              0.0000000000
      3009        37  POPC      C23            23.9340102472      -25.8215967620       13.2163075819  MEMB      37              0.0000000000
      3010        37  POPC      H3R            24.9833801384      -26.0935140713       13.4596277404  MEMB      37              0.0000000000
      3011        37  POPC      H3S            23.6392055736      -25.0489902878       13.9582576959  MEMB      37              0.0000000000
      3012        37  POPC      C24            23.8587288921      -25.0975112027       11.8306906771  MEMB      37              0.0000000000
      3013        37  POPC      H4R            24.6058853537      -24.2806358667       11.7369206319  MEMB      37              0.0000000000
      3014        37  POPC      H4S            22.8897279078      -24.5939732211       11.6262217628  MEMB      37              0.0000000000
      3015        37  POPC      C25            24.0690935335      -26.0217927967       10.6331947836  MEMB      37              0.0000000000
      3016        37  POPC      H5R            23.2142443919      -26.6645048915       10.3324041125  MEMB      37              0.0000000000
      3017        37  POPC      H5S            24.9506172408      -26.6697695456       10.8264895714  MEMB      37              0.0000000000
      3018        37  POPC      C26            24.4597095689      -25.2595883553        9.2772361979  MEMB      37              0.0000000000
      3019        37  POPC      H6R            25.0609117932      -24.3897521409        9.6182084969  MEMB      37              0.0000000000
      3020        37  POPC      H6S            23.5512574402      -24.8624703301        8.7759046742  MEMB      37              0.0000000000
      3021        37  POPC      C27            25.3705425200      -26.1273646229        8.3545250506  MEMB      37              0.0000000000
      3022        37  POPC      H7R            26.3643664376      -26.1911334640        8.8470378302  MEMB      37              0.0000000000
      3023        37  POPC      H7S            25.4815182331      -25.5192899027        7.4313510921  MEMB      37              0.0000000000
      3024        37  POPC      C28            24.8367919867      -27.4740027247        8.0402493718  MEMB      37              0.0000000000
      3025        37  POPC      H8R            24.9042889178      -28.2053333607        8.8738688094  MEMB      37              0.0000000000
      3026        37  POPC      H8S            25.5708304839      -27.8518086668        7.2967639936  MEMB      37              0.0000000000
      3027        37  POPC      C29            23.3771816424      -27.4582328810        7.5952928838  MEMB      37              0.0000000000
      3028        37  POPC      H91            22.6899959099      -27.5610831678        8.4480517524  MEMB      37              0.0000000000
      3029        37  POPC      C210           22.9271799928      -27.4827320131        6.2808653995  MEMB      37              0.0000000000
      3030        37  POPC      H101           21.8421429818      -27.5000783617        6.1008824990  MEMB      37              0.0000000000
      3031        37  POPC      C211           23.9062235438      -27.4948254786        5.1144720384  MEMB      37              0.0000000000
      3032        37  POPC      H11R           24.7453974925      -26.8501685833        5.4528885346  MEMB      37              0.0000000000
      3033        37  POPC      H11S           23.4751544617      -27.1767585423        4.1411611395  MEMB      37              0.0000000000
      3034        37  POPC      C212           24.3442704774      -28.9103982548        4.8246280652  MEMB      37              0.0000000000
      3035        37  POPC      H12R           24.7587625547      -29.4637009027        5.6943253750  MEMB      37              0.0000000000
      3036        37  POPC      H12S           25.1943879811      -28.7992806150        4.1180349949  MEMB      37              0.0000000000
      3037        37  POPC      C213           23.2610028457      -29.9145623792        4.1714803770  MEMB      37              0.0000000000
      3038        37  POPC      H13R           22.2823492584      -29.8005599098        4.6848621134  MEMB      37              0.0000000000
      3039        37  POPC      H13S           23.5964453662      -30.9727203460        4.2173183111  MEMB      37              0.0000000000
      3040        37  POPC      C214           22.9364710485      -29.7078151579        2.6614651252  MEMB      37              0.0000000000
      3041        37  POPC      H14R           23.7714624699      -30.1295998083        2.0621260753  MEMB      37              0.0000000000
      3042        37  POPC      H14S           22.6218279604      -28.6869479377        2.3562589612  MEMB      37              0.0000000000
      3043        37  POPC      C215           21.6585527051      -30.4185120562        2.1355614321  MEMB      37              0.0000000000
      3044        37  POPC      H15R           21.9484269180      -31.4711646478        1.9300962164  MEMB      37              0.0000000000
      3045        37  POPC      H15S           21.3416188210      -29.9301278921        1.1893307568  MEMB      37              0.0000000000
      3046        37  POPC      C216           20.3740909056      -30.5463487312        3.0824896740  MEMB      37              0.0000000000
      3047        37  POPC      H16R           20.0018265451      -29.5351250484        3.3529827571  MEMB      37              0.0000000000
      3048        37  POPC      H16S           20.7002617355      -31.1228539114        3.9744398395  MEMB      37              0.0000000000
      3049        37  POPC      C217           19.3426607038      -31.2729259567        2.3673379940  MEMB      37              0.0000000000
      3050        37  POPC      H17R           18.7877569052      -31.8171522590        3.1612033755  MEMB      37              0.0000000000
      3051        37  POPC      H17S           19.7391154059      -32.0232523158        1.6502925747  MEMB      37              0.0000000000
      3052        37  POPC      C218           18.3728041120      -30.3705633629        1.6377655930  MEMB      37              0.0000000000
      3053        37  POPC      H18R           17.7616024718      -29.8533812307        2.4080094405  MEMB      37              0.0000000000
      3054        37  POPC      H18S           17.6595360148      -30.9206588811        0.9874074575  MEMB      37              0.0000000000
      3055        37  POPC      H18T           18.9356708141      -29.6041803892        1.0631696404  MEMB      37              0.0000000000
      3056        37  POPC      C33            18.5663265370      -32.4275128961       13.5435843136  MEMB      37              0.0000000000
      3057        37  POPC      H3X            18.5342429860      -33.1788329013       14.3613925919  MEMB      37              0.0000000000
      3058        37  POPC      H3Y            19.3378062468      -32.6447290257       12.7741970124  MEMB      37              0.0000000000
      3059        37  POPC      C34            17.1299208416      -32.4902720452       12.9676758693  MEMB      37              0.0000000000
      3060        37  POPC      H4X            16.4413837135      -32.1995074737       13.7896814831  MEMB      37              0.0000000000
      3061        37  POPC      H4Y            16.8208400288      -33.4762110219       12.5593682922  MEMB      37              0.0000000000
      3062        37  POPC      C35            16.9747310331      -31.5051104321       11.7521032469  MEMB      37              0.0000000000
      3063        37  POPC      H5X            16.7813667276      -30.4592599751       12.0732384587  MEMB      37              0.0000000000
      3064        37  POPC      H5Y            15.9987127576      -31.9045512790       11.4025949044  MEMB      37              0.0000000000
      3065        37  POPC      C36            17.9806792459      -31.5915675299       10.5514929020  MEMB      37              0.0000000000
      3066        37  POPC      H6X            18.0338492239      -32.6602256731       10.2523884635  MEMB      37              0.0000000000
      3067        37  POPC      H6Y            18.9737454015      -31.2807181448       10.9407398624  MEMB      37              0.0000000000
      3068        37  POPC      C37            17.6690100552      -30.6635026444        9.3541998744  MEMB      37              0.0000000000
      3069        37  POPC      H7X            17.5880422494      -29.6139947891        9.7095850499  MEMB      37              0.0000000000
      3070        37  POPC      H7Y            16.6394090709      -30.9612430619        9.0616366623  MEMB      37              0.0000000000
      3071        37  POPC      C38            18.7287419963      -30.8590277307        8.2580065111  MEMB      37              0.0000000000
      3072        37  POPC      H8X            19.0467384962      -31.9230535880        8.2256293204  MEMB      37              0.0000000000
      3073        37  POPC      H8Y            19.7005188883      -30.4251541995        8.5769492305  MEMB      37              0.0000000000
      3074        37  POPC      C39            18.3260313690      -30.3369102749        6.9430180047  MEMB      37              0.0000000000
      3075        37  POPC      H9X            17.3590042712      -30.7736254136        6.6136857640  MEMB      37              0.0000000000
      3076        37  POPC      H9Y            19.1463325648      -30.5170074894        6.2156988808  MEMB      37              0.0000000000
      3077        37  POPC      C310           17.9251333314      -28.8146032918        6.9640400774  MEMB      37              0.0000000000
      3078        37  POPC      H10X           18.8594970404      -28.2943867311        7.2651383923  MEMB      37              0.0000000000
      3079        37  POPC      H10Y           17.0142654746      -28.6071747675        7.5653837942  MEMB      37              0.0000000000
      3080        37  POPC      C311           17.6637820716      -28.5171206237        5.4975563878  MEMB      37              0.0000000000
      3081        37  POPC      H11X           16.8211846748      -29.1669021583        5.1779715750  MEMB      37              0.0000000000
      3082        37  POPC      H11Y           18.6205335503      -28.7921272635        5.0042816821  MEMB      37              0.0000000000
      3083        37  POPC      C312           17.4333803350      -27.0274639582        5.2311842365  MEMB      37              0.0000000000
      3084        37  POPC      H12X           18.2438754723      -26.3862160864        5.6388847145  MEMB      37              0.0000000000
      3085        37  POPC      H12Y           16.5446025794      -26.7342241048        5.8298533243  MEMB      37              0.0000000000
      3086        37  POPC      C313           17.3676851529      -26.7488363392        3.6933221501  MEMB      37              0.0000000000
      3087        37  POPC      H13X           16.5167507887      -27.2482617891        3.1826307126  MEMB      37              0.0000000000
      3088        37  POPC      H13Y           18.3227653330      -27.0919075541        3.2411664365  MEMB      37              0.0000000000
      3089        37  POPC      C314           17.1404900095      -25.2583706418        3.4800340523  MEMB      37              0.0000000000
      3090        37  POPC      H14X           17.9984751189      -24.5664819697        3.6195796068  MEMB      37              0.0000000000
      3091        37  POPC      H14Y           16.3559283131      -24.9536210558        4.2052322077  MEMB      37              0.0000000000
      3092        37  POPC      C315           16.8075146163      -24.9991013077        1.9887799331  MEMB      37              0.0000000000
      3093        37  POPC      H15X           16.4889124081      -23.9349344850        1.9697387260  MEMB      37              0.0000000000
      3094        37  POPC      H15Y           15.9986931546      -25.6783598735        1.6441981920  MEMB      37              0.0000000000
      3095        37  POPC      C316           17.9401902145      -25.0804681691        1.0250322802  MEMB      37              0.0000000000
      3096        37  POPC      H16X           17.7413501139      -24.5164706033        0.0887150606  MEMB      37              0.0000000000
      3097        37  POPC      H16Y           18.1309092422      -26.1384673753        0.7447018532  MEMB      37              0.0000000000
      3098        37  POPC      H16Z           18.9256283112      -24.6180812593        1.2473635640  MEMB      37              0.0000000000
      3099        38  POPC      N             -38.0966235786        4.0404076193       18.0615649201  MEMB      38              0.0000000000
      3100        38  POPC      C12           -38.4233878561        2.5069559334       17.7789010160  MEMB      38              0.0000000000
      3101        38  POPC      H12A          -37.8524659399        1.9553432134       18.5111384859  MEMB      38              0.0000000000
      3102        38  POPC      H12B          -38.0274435261        2.2806217746       16.7999216102  MEMB      38              0.0000000000
      3103        38  POPC      C13           -38.7675543048        4.8084340499       16.9557054482  MEMB      38              0.0000000000
      3104        38  POPC      H13A          -38.3947991753        4.4753002258       15.9983781615  MEMB      38              0.0000000000
      3105        38  POPC      H13B          -39.8405653957        4.7947218542       17.0776035661  MEMB      38              0.0000000000
      3106        38  POPC      H13C          -38.5284194990        5.8550364877       17.0733403970  MEMB      38              0.0000000000
      3107        38  POPC      C14           -38.5567239577        4.4844407597       19.3633716721  MEMB      38              0.0000000000
      3108        38  POPC      H14A          -39.6346118174        4.5057198858       19.4274423694  MEMB      38              0.0000000000
      3109        38  POPC      H14B          -38.2286510883        3.8756743148       20.1929328417  MEMB      38              0.0000000000
      3110        38  POPC      H14C          -38.2588988267        5.5123171906       19.5088711786  MEMB      38              0.0000000000
      3111        38  POPC      C15           -36.6045234203        4.2009310551       17.9387660385  MEMB      38              0.0000000000
      3112        38  POPC      H15A          -36.3583667860        5.2520951316       17.9094199959  MEMB      38              0.0000000000
      3113        38  POPC      H15B          -36.1943128017        3.7162324522       17.0651559838  MEMB      38              0.0000000000
      3114        38  POPC      H15C          -36.0505813846        3.8201550055       18.7840812593  MEMB      38              0.0000000000
      3115        38  POPC      C11           -39.9338914942        2.0838827790       17.8554951498  MEMB      38              0.0000000000
      3116        38  POPC      H11A          -40.0357297643        1.0139433142       17.5741065442  MEMB      38              0.0000000000
      3117        38  POPC      H11B          -40.3656032127        2.6720548895       17.0176410145  MEMB      38              0.0000000000
      3118        38  POPC      P             -40.5084732641        1.2374118654       20.3004872728  MEMB      38              0.0000000000
      3119        38  POPC      O13           -41.0636312437        1.8437182398       21.5259765502  MEMB      38              0.0000000000
      3120        38  POPC      O14           -39.1480765826        0.6066376745       20.4332545519  MEMB      38              0.0000000000
      3121        38  POPC      O12           -40.5326219992        2.2658269970       19.0462935888  MEMB      38              0.0000000000
      3122        38  POPC      O11           -41.4245578845        0.0562456826       19.7401837768  MEMB      38              0.0000000000
      3123        38  POPC      C1            -42.6809778363        0.3302118980       19.1192957610  MEMB      38              0.0000000000
      3124        38  POPC      HA            -42.7874519431        1.3146233862       18.6153929624  MEMB      38              0.0000000000
      3125        38  POPC      HB            -43.4891286695        0.3755469273       19.8803200251  MEMB      38              0.0000000000
      3126        38  POPC      C2            -43.0571930061       -0.7248507576       18.0588668343  MEMB      38              0.0000000000
      3127        38  POPC      HS            -43.0328729299       -1.7587302015       18.4648504909  MEMB      38              0.0000000000
      3128        38  POPC      O21           -42.1389796224       -0.6324956294       16.9819732988  MEMB      38              0.0000000000
      3129        38  POPC      C21           -42.0755721799       -1.6710293459       16.1458721558  MEMB      38              0.0000000000
      3130        38  POPC      O22           -42.5359626019       -2.7725956934       16.2677987135  MEMB      38              0.0000000000
      3131        38  POPC      C22           -41.4467401017       -1.2478972901       14.8170536613  MEMB      38              0.0000000000
      3132        38  POPC      H2R           -40.3587453720       -1.4207269215       14.9609912755  MEMB      38              0.0000000000
      3133        38  POPC      H2S           -41.5285458355       -0.1669575143       14.5737470430  MEMB      38              0.0000000000
      3134        38  POPC      C3            -44.4940381413       -0.5016552395       17.5078888628  MEMB      38              0.0000000000
      3135        38  POPC      HX            -45.1657395999       -0.4787495772       18.3925431513  MEMB      38              0.0000000000
      3136        38  POPC      HY            -44.9100483155       -1.3379001158       16.9062650630  MEMB      38              0.0000000000
      3137        38  POPC      O31           -44.6442833764        0.7151675064       16.8653375424  MEMB      38              0.0000000000
      3138        38  POPC      C31           -44.7463516898        0.8803662162       15.5655072915  MEMB      38              0.0000000000
      3139        38  POPC      O32           -44.8029515601        0.0332280059       14.7254200527  MEMB      38              0.0000000000
      3140        38  POPC      C32           -44.4394417848        2.3675691439       15.1786038075  MEMB      38              0.0000000000
      3141        38  POPC      H2X           -45.4178638346        2.8686676983       15.0176329440  MEMB      38              0.0000000000
      3142        38  POPC      H2Y           -43.9264053321        2.2259928601       14.2033753367  MEMB      38              0.0000000000
      3143        38  POPC      C23           -41.8030367580       -2.1604162253       13.6844666120  MEMB      38              0.0000000000
      3144        38  POPC      H3R           -41.7265140666       -3.2382780048       13.9426903836  MEMB      38              0.0000000000
      3145        38  POPC      H3S           -40.9972739719       -1.9946572022       12.9377465863  MEMB      38              0.0000000000
      3146        38  POPC      C24           -43.1370211265       -1.9395459971       12.8043691676  MEMB      38              0.0000000000
      3147        38  POPC      H4R           -44.0014489711       -2.2216672451       13.4427211149  MEMB      38              0.0000000000
      3148        38  POPC      H4S           -43.0719732589       -2.7633562693       12.0617883883  MEMB      38              0.0000000000
      3149        38  POPC      C25           -43.3171524398       -0.6489873578       12.0076637689  MEMB      38              0.0000000000
      3150        38  POPC      H5R           -42.4572168304       -0.2269151757       11.4449141466  MEMB      38              0.0000000000
      3151        38  POPC      H5S           -43.5372511550        0.1150445797       12.7836360802  MEMB      38              0.0000000000
      3152        38  POPC      C26           -44.4164513968       -0.8438732923       10.9555435313  MEMB      38              0.0000000000
      3153        38  POPC      H6R           -45.3493238069       -1.2485536013       11.4030969437  MEMB      38              0.0000000000
      3154        38  POPC      H6S           -44.0662293048       -1.6434655217       10.2682895492  MEMB      38              0.0000000000
      3155        38  POPC      C27           -44.7476047868        0.4295064759       10.2525760298  MEMB      38              0.0000000000
      3156        38  POPC      H7R           -44.4329465878        1.2825826062       10.8909896763  MEMB      38              0.0000000000
      3157        38  POPC      H7S           -45.8389468639        0.5689883320       10.0981807295  MEMB      38              0.0000000000
      3158        38  POPC      C28           -44.0419865074        0.7327210199        8.8464422863  MEMB      38              0.0000000000
      3159        38  POPC      H8R           -42.9773951458        0.4342626412        8.9554789947  MEMB      38              0.0000000000
      3160        38  POPC      H8S           -44.1757474010        1.8190412690        8.6558193583  MEMB      38              0.0000000000
      3161        38  POPC      C29           -44.6496195266        0.0824597682        7.6276667464  MEMB      38              0.0000000000
      3162        38  POPC      H91           -45.6306574282        0.3921358555        7.2382238086  MEMB      38              0.0000000000
      3163        38  POPC      C210          -44.1722230555       -0.9944359732        6.8711650318  MEMB      38              0.0000000000
      3164        38  POPC      H101          -44.8232640294       -1.4415161682        6.1054858248  MEMB      38              0.0000000000
      3165        38  POPC      C211          -42.8723871954       -1.7435968456        7.1617822407  MEMB      38              0.0000000000
      3166        38  POPC      H11R          -42.9327101907       -2.8529529618        7.1651380082  MEMB      38              0.0000000000
      3167        38  POPC      H11S          -42.3719469086       -1.3150245859        8.0563245626  MEMB      38              0.0000000000
      3168        38  POPC      C212          -41.8912524708       -1.2138580368        6.0263563586  MEMB      38              0.0000000000
      3169        38  POPC      H12R          -40.8519617739       -1.5263000608        6.2642137941  MEMB      38              0.0000000000
      3170        38  POPC      H12S          -41.8536373709       -0.1041445805        6.0643349645  MEMB      38              0.0000000000
      3171        38  POPC      C213          -42.3533780867       -1.7344158689        4.6132641384  MEMB      38              0.0000000000
      3172        38  POPC      H13R          -43.2974609916       -1.2138235261        4.3449134143  MEMB      38              0.0000000000
      3173        38  POPC      H13S          -42.5859596380       -2.8196844945        4.6624467834  MEMB      38              0.0000000000
      3174        38  POPC      C214          -41.4072681149       -1.5844379915        3.4359189315  MEMB      38              0.0000000000
      3175        38  POPC      H14R          -40.4751463555       -2.1787192314        3.5468237637  MEMB      38              0.0000000000
      3176        38  POPC      H14S          -41.1107354577       -0.5139590725        3.4143753594  MEMB      38              0.0000000000
      3177        38  POPC      C215          -42.0760833215       -1.8820324326        2.1168887163  MEMB      38              0.0000000000
      3178        38  POPC      H15R          -42.8561128538       -1.1055358210        1.9654687680  MEMB      38              0.0000000000
      3179        38  POPC      H15S          -42.5940255796       -2.8630560073        2.0564769457  MEMB      38              0.0000000000
      3180        38  POPC      C216          -41.1476618305       -1.7145604203        0.9872246854  MEMB      38              0.0000000000
      3181        38  POPC      H16R          -40.2453721926       -2.2969720771        1.2718124415  MEMB      38              0.0000000000
      3182        38  POPC      H16S          -40.8962494858       -0.6390870666        0.8669341383  MEMB      38              0.0000000000
      3183        38  POPC      C217          -41.6366391162       -2.2381170072       -0.3394471844  MEMB      38              0.0000000000
      3184        38  POPC      H17R          -41.9024626287       -3.3040530089       -0.1737983148  MEMB      38              0.0000000000
      3185        38  POPC      H17S          -40.7659713976       -2.2884522702       -1.0277236574  MEMB      38              0.0000000000
      3186        38  POPC      C218          -42.8655845087       -1.5302502120       -0.9263785412  MEMB      38              0.0000000000
      3187        38  POPC      H18R          -42.9772807733       -1.8341270620       -1.9891602136  MEMB      38              0.0000000000
      3188        38  POPC      H18S          -42.7249731559       -0.4321271907       -0.8332378665  MEMB      38              0.0000000000
      3189        38  POPC      H18T          -43.7607774903       -1.8567558635       -0.3551126975  MEMB      38              0.0000000000
      3190        38  POPC      C33           -43.5455707904        3.1861554336       16.1300983465  MEMB      38              0.0000000000
      3191        38  POPC      H3X           -42.6979369346        2.5770917963       16.5107286598  MEMB      38              0.0000000000
      3192        38  POPC      H3Y           -44.1331306788        3.3734343382       17.0542309415  MEMB      38              0.0000000000
      3193        38  POPC      C34           -43.0118805107        4.4683898123       15.5538885695  MEMB      38              0.0000000000
      3194        38  POPC      H4X           -42.3263061428        4.9495536548       16.2838133670  MEMB      38              0.0000000000
      3195        38  POPC      H4Y           -43.8417719778        5.1681424183       15.3173571073  MEMB      38              0.0000000000
      3196        38  POPC      C35           -42.3165468211        4.3073012020       14.1662849887  MEMB      38              0.0000000000
      3197        38  POPC      H5X           -41.9472500489        5.3320966523       13.9478014680  MEMB      38              0.0000000000
      3198        38  POPC      H5Y           -43.1078449747        4.0581281745       13.4273121683  MEMB      38              0.0000000000
      3199        38  POPC      C36           -41.2249891462        3.2196693815       14.1845822156  MEMB      38              0.0000000000
      3200        38  POPC      H6X           -41.7748832546        2.2633124693       14.0529813330  MEMB      38              0.0000000000
      3201        38  POPC      H6Y           -40.6024902108        3.2455219127       15.1044450579  MEMB      38              0.0000000000
      3202        38  POPC      C37           -40.2059481694        3.2997286862       13.0075883277  MEMB      38              0.0000000000
      3203        38  POPC      H7X           -39.5375898609        2.4464262094       13.2514999827  MEMB      38              0.0000000000
      3204        38  POPC      H7Y           -39.7357333327        4.3019015279       13.1017613830  MEMB      38              0.0000000000
      3205        38  POPC      C38           -40.8727998539        3.0846693061       11.6358631842  MEMB      38              0.0000000000
      3206        38  POPC      H8X           -41.7355948233        3.7710169241       11.4986308586  MEMB      38              0.0000000000
      3207        38  POPC      H8Y           -41.2289338385        2.0390560908       11.5167718448  MEMB      38              0.0000000000
      3208        38  POPC      C39           -39.8834421671        3.5133438139       10.4500347746  MEMB      38              0.0000000000
      3209        38  POPC      H9X           -38.8856516969        3.0550110787       10.6193460534  MEMB      38              0.0000000000
      3210        38  POPC      H9Y           -39.8231526177        4.6157174407       10.5743689546  MEMB      38              0.0000000000
      3211        38  POPC      C310          -40.2678852923        3.3472425616        8.9764709776  MEMB      38              0.0000000000
      3212        38  POPC      H10X          -40.2493415650        2.2530587778        8.7847974401  MEMB      38              0.0000000000
      3213        38  POPC      H10Y          -39.5361062958        3.7926977049        8.2690884201  MEMB      38              0.0000000000
      3214        38  POPC      C311          -41.6801252006        3.9365243206        8.5369987655  MEMB      38              0.0000000000
      3215        38  POPC      H11X          -41.7021938342        5.0373803093        8.6851542701  MEMB      38              0.0000000000
      3216        38  POPC      H11Y          -42.4191610158        3.4975124417        9.2408563216  MEMB      38              0.0000000000
      3217        38  POPC      C312          -41.9757384215        3.5117074344        7.0965915725  MEMB      38              0.0000000000
      3218        38  POPC      H12X          -42.9441997240        3.9814136750        6.8213107802  MEMB      38              0.0000000000
      3219        38  POPC      H12Y          -42.1041295255        2.4178696680        6.9504560210  MEMB      38              0.0000000000
      3220        38  POPC      C313          -41.0280788770        4.1023716841        6.0362071287  MEMB      38              0.0000000000
      3221        38  POPC      H13X          -40.0444895975        3.6491365612        6.2840997357  MEMB      38              0.0000000000
      3222        38  POPC      H13Y          -41.0299412288        5.2117290802        6.0965713368  MEMB      38              0.0000000000
      3223        38  POPC      C314          -41.2324253030        3.7941408186        4.5281763634  MEMB      38              0.0000000000
      3224        38  POPC      H14X          -40.3429424537        4.0560536918        3.9161773734  MEMB      38              0.0000000000
      3225        38  POPC      H14Y          -41.8650737077        4.5653791442        4.0390255257  MEMB      38              0.0000000000
      3226        38  POPC      C315          -41.7039148065        2.4098904450        4.0902428135  MEMB      38              0.0000000000
      3227        38  POPC      H15X          -42.7563921451        2.3602883717        4.4425950541  MEMB      38              0.0000000000
      3228        38  POPC      H15Y          -41.2557656299        1.5432630661        4.6216941635  MEMB      38              0.0000000000
      3229        38  POPC      C316          -41.7642644029        2.2365417262        2.5955771118  MEMB      38              0.0000000000
      3230        38  POPC      H16X          -40.7389470151        2.0703765071        2.2013253996  MEMB      38              0.0000000000
      3231        38  POPC      H16Y          -42.2678387061        3.0858342314        2.0862278926  MEMB      38              0.0000000000
      3232        38  POPC      H16Z          -42.4209364014        1.3600360224        2.4089217128  MEMB      38              0.0000000000
      3233        39  POPC      N             -34.7162316576      -14.0701893661       18.9691680670  MEMB      39              0.0000000000
      3234        39  POPC      C12           -33.4715401370      -13.2845840709       18.6994364271  MEMB      39              0.0000000000
      3235        39  POPC      H12A          -33.6479401734      -12.2341785781       18.8781304730  MEMB      39              0.0000000000
      3236        39  POPC      H12B          -33.2012753643      -13.2908804476       17.6538182588  MEMB      39              0.0000000000
      3237        39  POPC      C13           -34.9486094263      -14.1317618790       20.3897680863  MEMB      39              0.0000000000
      3238        39  POPC      H13A          -34.1883572147      -14.6378658213       20.9662014712  MEMB      39              0.0000000000
      3239        39  POPC      H13B          -35.1425078866      -13.1889110932       20.8794983479  MEMB      39              0.0000000000
      3240        39  POPC      H13C          -35.8327228976      -14.7133887719       20.6052987221  MEMB      39              0.0000000000
      3241        39  POPC      C14           -35.8704673145      -13.3163699935       18.3109237742  MEMB      39              0.0000000000
      3242        39  POPC      H14A          -36.8164851680      -13.7622638829       18.5804207690  MEMB      39              0.0000000000
      3243        39  POPC      H14B          -35.8361676600      -12.3425014037       18.7765453920  MEMB      39              0.0000000000
      3244        39  POPC      H14C          -35.6898964053      -13.2934967123       17.2463717892  MEMB      39              0.0000000000
      3245        39  POPC      C15           -34.7429589593      -15.4676684945       18.2736170823  MEMB      39              0.0000000000
      3246        39  POPC      H15A          -34.6559929033      -15.3646994619       17.2020601466  MEMB      39              0.0000000000
      3247        39  POPC      H15B          -35.6911051675      -15.9695225942       18.3983609135  MEMB      39              0.0000000000
      3248        39  POPC      H15C          -33.8815887306      -16.0527825955       18.5601181231  MEMB      39              0.0000000000
      3249        39  POPC      C11           -32.2138277034      -13.6314529466       19.5198929686  MEMB      39              0.0000000000
      3250        39  POPC      H11A          -32.2772936758      -13.1097850877       20.4987472211  MEMB      39              0.0000000000
      3251        39  POPC      H11B          -31.3138418581      -13.2997491655       18.9592513289  MEMB      39              0.0000000000
      3252        39  POPC      P             -31.2820224662      -16.0781289848       19.0290797709  MEMB      39              0.0000000000
      3253        39  POPC      O13           -32.0106081840      -17.3512329734       18.7706345029  MEMB      39              0.0000000000
      3254        39  POPC      O14           -29.9010811431      -16.1685375813       19.5078434413  MEMB      39              0.0000000000
      3255        39  POPC      O12           -32.0845853675      -15.0381546775       19.8904170595  MEMB      39              0.0000000000
      3256        39  POPC      O11           -31.2878924238      -15.2961675993       17.6392188201  MEMB      39              0.0000000000
      3257        39  POPC      C1            -30.1575783571      -15.4313264137       16.7971158570  MEMB      39              0.0000000000
      3258        39  POPC      HA            -30.3643211824      -16.1331308228       15.9610244717  MEMB      39              0.0000000000
      3259        39  POPC      HB            -29.2286614978      -15.7643914797       17.3075095572  MEMB      39              0.0000000000
      3260        39  POPC      C2            -29.9824474288      -14.0659998672       16.1689342705  MEMB      39              0.0000000000
      3261        39  POPC      HS            -29.7276029590      -13.3296095490       16.9608338368  MEMB      39              0.0000000000
      3262        39  POPC      O21           -31.2423589268      -13.7313132113       15.5649366757  MEMB      39              0.0000000000
      3263        39  POPC      C21           -31.6256634372      -12.4896715492       15.7797644532  MEMB      39              0.0000000000
      3264        39  POPC      O22           -31.0478730357      -11.5984677133       16.4513799328  MEMB      39              0.0000000000
      3265        39  POPC      C22           -32.8553822395      -12.2261101349       14.8249416970  MEMB      39              0.0000000000
      3266        39  POPC      H2R           -32.9044043591      -11.1198151946       14.7353346707  MEMB      39              0.0000000000
      3267        39  POPC      H2S           -33.8054279874      -12.5349596990       15.3110959981  MEMB      39              0.0000000000
      3268        39  POPC      C3            -28.8936601811      -13.8804925005       15.0902429473  MEMB      39              0.0000000000
      3269        39  POPC      HX            -28.0129865796      -14.3614498444       15.5671231251  MEMB      39              0.0000000000
      3270        39  POPC      HY            -28.6195897272      -12.8570621055       14.7558826029  MEMB      39              0.0000000000
      3271        39  POPC      O31           -29.2829668791      -14.7439749723       13.9822538921  MEMB      39              0.0000000000
      3272        39  POPC      C31           -28.9902474308      -14.4276403262       12.7140779582  MEMB      39              0.0000000000
      3273        39  POPC      O32           -28.1997558988      -13.5081907946       12.4287943454  MEMB      39              0.0000000000
      3274        39  POPC      C32           -29.5002446647      -15.5112545224       11.7422327081  MEMB      39              0.0000000000
      3275        39  POPC      H2X           -30.4108434356      -15.9924762347       12.1588337269  MEMB      39              0.0000000000
      3276        39  POPC      H2Y           -28.6773294674      -16.2576655557       11.7409192597  MEMB      39              0.0000000000
      3277        39  POPC      C23           -32.5838263003      -12.8369824914       13.4441687175  MEMB      39              0.0000000000
      3278        39  POPC      H3R           -31.5452466922      -12.6063059095       13.1240723016  MEMB      39              0.0000000000
      3279        39  POPC      H3S           -33.1980476647      -12.2268278752       12.7479185239  MEMB      39              0.0000000000
      3280        39  POPC      C24           -33.0075421576      -14.2819453406       13.2654770968  MEMB      39              0.0000000000
      3281        39  POPC      H4R           -32.6310747135      -14.9856351448       14.0384024244  MEMB      39              0.0000000000
      3282        39  POPC      H4S           -32.6825076068      -14.6599692427       12.2726165008  MEMB      39              0.0000000000
      3283        39  POPC      C25           -34.5552234525      -14.4163439562       13.2765503406  MEMB      39              0.0000000000
      3284        39  POPC      H5R           -34.9096948074      -14.2131654300       14.3096956173  MEMB      39              0.0000000000
      3285        39  POPC      H5S           -34.9290793258      -15.4618540712       13.2383229411  MEMB      39              0.0000000000
      3286        39  POPC      C26           -35.4147097801      -13.5455275091       12.2892075361  MEMB      39              0.0000000000
      3287        39  POPC      H6R           -35.4311181911      -12.4738785062       12.5818169780  MEMB      39              0.0000000000
      3288        39  POPC      H6S           -36.4684662290      -13.8647359436       12.4376137980  MEMB      39              0.0000000000
      3289        39  POPC      C27           -34.9596651832      -13.8473605754       10.8343366012  MEMB      39              0.0000000000
      3290        39  POPC      H7R           -34.8018077117      -14.9436728063       10.7477261052  MEMB      39              0.0000000000
      3291        39  POPC      H7S           -33.9855541579      -13.3513780546       10.6357672420  MEMB      39              0.0000000000
      3292        39  POPC      C28           -35.8663393386      -13.2828630102        9.6506294282  MEMB      39              0.0000000000
      3293        39  POPC      H8R           -36.8668032428      -13.7548112613        9.7538649169  MEMB      39              0.0000000000
      3294        39  POPC      H8S           -35.3244332701      -13.7048418470        8.7773632803  MEMB      39              0.0000000000
      3295        39  POPC      C29           -35.9405342222      -11.7812089435        9.8261666428  MEMB      39              0.0000000000
      3296        39  POPC      H91           -36.6360873478      -11.3568449111       10.5651669228  MEMB      39              0.0000000000
      3297        39  POPC      C210          -35.2129437549      -10.9186377042        9.0913324708  MEMB      39              0.0000000000
      3298        39  POPC      H101          -35.5591601591       -9.8801385811        9.1992820230  MEMB      39              0.0000000000
      3299        39  POPC      C211          -34.2477438432      -11.2790678602        8.0088464995  MEMB      39              0.0000000000
      3300        39  POPC      H11R          -33.8830040598      -12.3262830129        8.0768636093  MEMB      39              0.0000000000
      3301        39  POPC      H11S          -33.4130216400      -10.5516149441        7.9173490399  MEMB      39              0.0000000000
      3302        39  POPC      C212          -34.9478257031      -11.1594958779        6.6249861100  MEMB      39              0.0000000000
      3303        39  POPC      H12R          -35.3315626740      -10.1196562139        6.5488287706  MEMB      39              0.0000000000
      3304        39  POPC      H12S          -35.8859208750      -11.7546435983        6.6150892141  MEMB      39              0.0000000000
      3305        39  POPC      C213          -34.1479576001      -11.7524794691        5.4489587456  MEMB      39              0.0000000000
      3306        39  POPC      H13R          -33.9548203379      -12.8385447883        5.5811756946  MEMB      39              0.0000000000
      3307        39  POPC      H13S          -33.1498637141      -11.2695360907        5.3789961653  MEMB      39              0.0000000000
      3308        39  POPC      C214          -34.8309079936      -11.3832153869        4.0750947756  MEMB      39              0.0000000000
      3309        39  POPC      H14R          -34.8983711487      -10.2744976551        4.0977756022  MEMB      39              0.0000000000
      3310        39  POPC      H14S          -35.8125819485      -11.8879078734        3.9489097539  MEMB      39              0.0000000000
      3311        39  POPC      C215          -33.8188671111      -11.6018184406        2.8709009945  MEMB      39              0.0000000000
      3312        39  POPC      H15R          -32.8702458371      -11.0454843562        3.0287960369  MEMB      39              0.0000000000
      3313        39  POPC      H15S          -34.2830355284      -11.1737264091        1.9567848719  MEMB      39              0.0000000000
      3314        39  POPC      C216          -33.2133440174      -13.0241854973        2.6673777392  MEMB      39              0.0000000000
      3315        39  POPC      H16R          -32.6002140179      -13.3176389674        3.5461705548  MEMB      39              0.0000000000
      3316        39  POPC      H16S          -32.5461566776      -13.0300778409        1.7790382053  MEMB      39              0.0000000000
      3317        39  POPC      C217          -34.2349752976      -14.2049348971        2.5637008559  MEMB      39              0.0000000000
      3318        39  POPC      H17R          -34.8710047477      -14.0888991939        1.6601953941  MEMB      39              0.0000000000
      3319        39  POPC      H17S          -34.8898921173      -14.1765332182        3.4606940236  MEMB      39              0.0000000000
      3320        39  POPC      C218          -33.5995614579      -15.5610781446        2.5049415976  MEMB      39              0.0000000000
      3321        39  POPC      H18R          -33.0269824634      -15.7320456362        3.4415559675  MEMB      39              0.0000000000
      3322        39  POPC      H18S          -32.8634712654      -15.6162148039        1.6746100920  MEMB      39              0.0000000000
      3323        39  POPC      H18T          -34.3490195342      -16.3804717571        2.4699047073  MEMB      39              0.0000000000
      3324        39  POPC      C33           -29.6991600844      -14.9247401403       10.3415006412  MEMB      39              0.0000000000
      3325        39  POPC      H3X           -28.7742893345      -14.4129178604        9.9994876472  MEMB      39              0.0000000000
      3326        39  POPC      H3Y           -30.4970333768      -14.1611925342       10.4628036109  MEMB      39              0.0000000000
      3327        39  POPC      C34           -30.2897411563      -15.8820740947        9.2890455114  MEMB      39              0.0000000000
      3328        39  POPC      H4X           -31.3592763271      -16.0882941666        9.5078808615  MEMB      39              0.0000000000
      3329        39  POPC      H4Y           -29.7802198951      -16.8680568724        9.3395134222  MEMB      39              0.0000000000
      3330        39  POPC      C35           -30.0618478918      -15.3417210342        7.8342708926  MEMB      39              0.0000000000
      3331        39  POPC      H5X           -28.9833893215      -15.0757051916        7.8562661713  MEMB      39              0.0000000000
      3332        39  POPC      H5Y           -30.6546260618      -14.4072758740        7.7355426453  MEMB      39              0.0000000000
      3333        39  POPC      C36           -30.3839510632      -16.2684102733        6.6415103727  MEMB      39              0.0000000000
      3334        39  POPC      H6X           -31.4847711458      -16.2315281373        6.4960592811  MEMB      39              0.0000000000
      3335        39  POPC      H6Y           -30.0790252548      -17.2991063369        6.9225913343  MEMB      39              0.0000000000
      3336        39  POPC      C37           -29.7704636976      -15.7898121702        5.3141285630  MEMB      39              0.0000000000
      3337        39  POPC      H7X           -29.3546630462      -14.7775227586        5.5057033459  MEMB      39              0.0000000000
      3338        39  POPC      H7Y           -30.6129871190      -15.6181193240        4.6105682352  MEMB      39              0.0000000000
      3339        39  POPC      C38           -28.7173512969      -16.7085194266        4.6911590188  MEMB      39              0.0000000000
      3340        39  POPC      H8X           -29.1504022077      -17.7278039080        4.6025747628  MEMB      39              0.0000000000
      3341        39  POPC      H8Y           -27.8128283900      -16.6685922001        5.3350255970  MEMB      39              0.0000000000
      3342        39  POPC      C39           -28.1511765682      -16.2946685798        3.2619199370  MEMB      39              0.0000000000
      3343        39  POPC      H9X           -27.2376534239      -16.8659828080        2.9910026369  MEMB      39              0.0000000000
      3344        39  POPC      H9Y           -27.9015221199      -15.2157762230        3.1725607755  MEMB      39              0.0000000000
      3345        39  POPC      C310          -29.2643304050      -16.7192863759        2.2544798994  MEMB      39              0.0000000000
      3346        39  POPC      H10X          -30.1056991011      -16.0175781300        2.4389387459  MEMB      39              0.0000000000
      3347        39  POPC      H10Y          -29.6117808979      -17.7585721831        2.4374664052  MEMB      39              0.0000000000
      3348        39  POPC      C311          -28.8522441560      -16.3665209260        0.8162897717  MEMB      39              0.0000000000
      3349        39  POPC      H11X          -28.0973872115      -17.1477985992        0.5836562115  MEMB      39              0.0000000000
      3350        39  POPC      H11Y          -28.2781364458      -15.4165103412        0.7693727318  MEMB      39              0.0000000000
      3351        39  POPC      C312          -29.9398945841      -16.3756349851       -0.2525215009  MEMB      39              0.0000000000
      3352        39  POPC      H12X          -30.6721400902      -15.6193088244        0.1025968238  MEMB      39              0.0000000000
      3353        39  POPC      H12Y          -30.5288397250      -17.3123902251       -0.3522910593  MEMB      39              0.0000000000
      3354        39  POPC      C313          -29.6126629009      -15.8909092003       -1.6737715821  MEMB      39              0.0000000000
      3355        39  POPC      H13X          -29.0797377448      -16.7401277033       -2.1524586917  MEMB      39              0.0000000000
      3356        39  POPC      H13Y          -28.8924892839      -15.0474068359       -1.7383831906  MEMB      39              0.0000000000
      3357        39  POPC      C314          -30.8164369894      -15.6632807684       -2.5933775007  MEMB      39              0.0000000000
      3358        39  POPC      H14X          -31.4560187104      -16.5663762226       -2.4950172912  MEMB      39              0.0000000000
      3359        39  POPC      H14Y          -30.5139914190      -15.5099023892       -3.6513582345  MEMB      39              0.0000000000
      3360        39  POPC      C315          -31.5556765292      -14.4165470024       -2.1977964564  MEMB      39              0.0000000000
      3361        39  POPC      H15X          -31.9799350139      -14.6175424869       -1.1908562776  MEMB      39              0.0000000000
      3362        39  POPC      H15Y          -32.3760526885      -14.3115585153       -2.9396057651  MEMB      39              0.0000000000
      3363        39  POPC      C316          -30.8160493911      -13.1509661796       -1.9933635005  MEMB      39              0.0000000000
      3364        39  POPC      H16X          -31.4486237736      -12.2405882985       -2.0667324966  MEMB      39              0.0000000000
      3365        39  POPC      H16Y          -30.1762446855      -12.9382954306       -2.8763921990  MEMB      39              0.0000000000
      3366        39  POPC      H16Z          -30.2058114304      -13.1560163529       -1.0649746293  MEMB      39              0.0000000000
      3367        40  POPC      N              -1.6746112652      -39.9817296000       21.1497683093  MEMB      40              0.0000000000
      3368        40  POPC      C12            -0.8391157743      -40.6458704774       19.9912897449  MEMB      40              0.0000000000
      3369        40  POPC      H12A           -1.5136328459      -41.4598198865       19.7701267369  MEMB      40              0.0000000000
      3370        40  POPC      H12B            0.1000083029      -40.9564063339       20.4248953535  MEMB      40              0.0000000000
      3371        40  POPC      C13            -1.2809406828      -38.5644937188       21.5491811468  MEMB      40              0.0000000000
      3372        40  POPC      H13A           -1.3651855298      -37.8997955046       20.7021396765  MEMB      40              0.0000000000
      3373        40  POPC      H13B           -1.9441648935      -38.2059211132       22.3224594760  MEMB      40              0.0000000000
      3374        40  POPC      H13C           -0.2517749871      -38.6315983399       21.8696730538  MEMB      40              0.0000000000
      3375        40  POPC      C14            -3.0737732944      -39.9561295974       20.8341141477  MEMB      40              0.0000000000
      3376        40  POPC      H14A           -3.5212486211      -40.9324463964       20.9480046191  MEMB      40              0.0000000000
      3377        40  POPC      H14B           -3.5587710331      -39.3867844186       21.6132310146  MEMB      40              0.0000000000
      3378        40  POPC      H14C           -3.1295859171      -39.5305225752       19.8430823898  MEMB      40              0.0000000000
      3379        40  POPC      C15            -1.4585401078      -40.9369287476       22.3599911144  MEMB      40              0.0000000000
      3380        40  POPC      H15A           -0.4067875773      -40.8871301860       22.6002761235  MEMB      40              0.0000000000
      3381        40  POPC      H15B           -1.7404180123      -41.9569994296       22.1445834648  MEMB      40              0.0000000000
      3382        40  POPC      H15C           -1.9854469582      -40.5970542681       23.2393399394  MEMB      40              0.0000000000
      3383        40  POPC      C11            -0.5721740883      -39.8320465623       18.6742436216  MEMB      40              0.0000000000
      3384        40  POPC      H11A           -0.1510233025      -40.5857190943       17.9750077822  MEMB      40              0.0000000000
      3385        40  POPC      H11B            0.2634130072      -39.1782215926       19.0038315523  MEMB      40              0.0000000000
      3386        40  POPC      P              -1.6860080633      -38.4329415219       16.8748103061  MEMB      40              0.0000000000
      3387        40  POPC      O13            -0.3321130966      -38.4317863616       16.2449634595  MEMB      40              0.0000000000
      3388        40  POPC      O14            -2.1036063180      -37.0343461786       17.1791037497  MEMB      40              0.0000000000
      3389        40  POPC      O12            -1.7120837967      -39.2529368385       18.2131805052  MEMB      40              0.0000000000
      3390        40  POPC      O11            -2.8062563110      -39.0747542974       15.9293538967  MEMB      40              0.0000000000
      3391        40  POPC      C1             -4.2042628395      -38.9773960840       16.3953890386  MEMB      40              0.0000000000
      3392        40  POPC      HA             -4.4210201600      -37.9612790002       16.7888904976  MEMB      40              0.0000000000
      3393        40  POPC      HB             -4.4327443155      -39.6224208470       17.2706377305  MEMB      40              0.0000000000
      3394        40  POPC      C2             -5.1963102973      -39.3963430234       15.1577336778  MEMB      40              0.0000000000
      3395        40  POPC      HS             -6.1702025976      -39.6938357690       15.6019775017  MEMB      40              0.0000000000
      3396        40  POPC      O21            -4.7303314701      -40.4192419207       14.2978040778  MEMB      40              0.0000000000
      3397        40  POPC      C21            -4.3729510601      -41.5592492935       14.9264530740  MEMB      40              0.0000000000
      3398        40  POPC      O22            -4.5416568424      -41.8683642753       16.1011916712  MEMB      40              0.0000000000
      3399        40  POPC      C22            -3.4849104218      -42.4233522621       13.9670316355  MEMB      40              0.0000000000
      3400        40  POPC      H2R            -3.6284106435      -41.9937738477       12.9525409397  MEMB      40              0.0000000000
      3401        40  POPC      H2S            -3.7341160998      -43.5055331306       14.0002313945  MEMB      40              0.0000000000
      3402        40  POPC      C3             -5.3388086515      -38.1485919395       14.2254920398  MEMB      40              0.0000000000
      3403        40  POPC      HX             -5.7560199395      -37.3189811329       14.8354111413  MEMB      40              0.0000000000
      3404        40  POPC      HY             -6.0240966839      -38.5714568185       13.4600599421  MEMB      40              0.0000000000
      3405        40  POPC      O31            -4.0968871826      -37.6729235046       13.6482300671  MEMB      40              0.0000000000
      3406        40  POPC      C31            -4.1691214017      -36.9976665407       12.4957504526  MEMB      40              0.0000000000
      3407        40  POPC      O32            -5.1656976561      -36.5860014958       11.9571428350  MEMB      40              0.0000000000
      3408        40  POPC      C32            -2.7877856810      -36.8194135717       11.8732655654  MEMB      40              0.0000000000
      3409        40  POPC      H2X            -2.8137923661      -35.8755260402       11.2878419784  MEMB      40              0.0000000000
      3410        40  POPC      H2Y            -2.7107508586      -37.6771626186       11.1713732043  MEMB      40              0.0000000000
      3411        40  POPC      C23            -2.0344738766      -42.3668212992       14.4160388823  MEMB      40              0.0000000000
      3412        40  POPC      H3R            -1.8026824926      -42.8075200730       15.4092049497  MEMB      40              0.0000000000
      3413        40  POPC      H3S            -1.7065021595      -41.3157343795       14.5642678978  MEMB      40              0.0000000000
      3414        40  POPC      C24            -1.0310623370      -43.0466201120       13.4838541859  MEMB      40              0.0000000000
      3415        40  POPC      H4R            -1.7063844303      -43.7131906454       12.9059746768  MEMB      40              0.0000000000
      3416        40  POPC      H4S            -0.2237750117      -43.5276517543       14.0764897954  MEMB      40              0.0000000000
      3417        40  POPC      C25            -0.2447092332      -42.0432578124       12.6940568976  MEMB      40              0.0000000000
      3418        40  POPC      H5R             0.7116183918      -41.8353862980       13.2199347978  MEMB      40              0.0000000000
      3419        40  POPC      H5S            -0.8040253632      -41.0852271211       12.6335274375  MEMB      40              0.0000000000
      3420        40  POPC      C26             0.2377014759      -42.4249079788       11.2994201380  MEMB      40              0.0000000000
      3421        40  POPC      H6R             0.8799733304      -43.3203889336       11.4405644925  MEMB      40              0.0000000000
      3422        40  POPC      H6S             0.8495284462      -41.5973875155       10.8808531429  MEMB      40              0.0000000000
      3423        40  POPC      C27            -0.8209937331      -42.8018823282       10.2649718227  MEMB      40              0.0000000000
      3424        40  POPC      H7R            -1.4123847616      -43.7236425185       10.4518831670  MEMB      40              0.0000000000
      3425        40  POPC      H7S            -0.3511493843      -43.0612325111        9.2921901320  MEMB      40              0.0000000000
      3426        40  POPC      C28            -1.8325799754      -41.6313229729       10.0542312714  MEMB      40              0.0000000000
      3427        40  POPC      H8R            -1.3490863524      -40.6618703314        9.8078243004  MEMB      40              0.0000000000
      3428        40  POPC      H8S            -2.4711243334      -41.4907349396       10.9524612951  MEMB      40              0.0000000000
      3429        40  POPC      C29            -2.6649985583      -41.8855613634        8.8388837627  MEMB      40              0.0000000000
      3430        40  POPC      H91            -2.3512593047      -42.7534786203        8.2403124959  MEMB      40              0.0000000000
      3431        40  POPC      C210           -3.8123889995      -41.3074425596        8.5592728912  MEMB      40              0.0000000000
      3432        40  POPC      H101           -4.3388263448      -41.5438137495        7.6227940411  MEMB      40              0.0000000000
      3433        40  POPC      C211           -4.5497451075      -40.2495111081        9.2450420450  MEMB      40              0.0000000000
      3434        40  POPC      H11R           -4.0704708877      -39.9412967128       10.1987825057  MEMB      40              0.0000000000
      3435        40  POPC      H11S           -5.6376915111      -40.4654307441        9.3088579247  MEMB      40              0.0000000000
      3436        40  POPC      C212           -4.5742471130      -38.9395589060        8.3160780457  MEMB      40              0.0000000000
      3437        40  POPC      H12R           -3.5160085516      -38.8058370131        8.0053198809  MEMB      40              0.0000000000
      3438        40  POPC      H12S           -4.9691019719      -38.0570574500        8.8634374049  MEMB      40              0.0000000000
      3439        40  POPC      C213           -5.4043193663      -39.2428828801        7.0681427464  MEMB      40              0.0000000000
      3440        40  POPC      H13R           -6.4456523874      -39.4328906597        7.4055496328  MEMB      40              0.0000000000
      3441        40  POPC      H13S           -5.0243849209      -40.1124909278        6.4904297738  MEMB      40              0.0000000000
      3442        40  POPC      C214           -5.5481375617      -38.0655651245        6.1593560138  MEMB      40              0.0000000000
      3443        40  POPC      H14R           -4.5078102156      -37.9003805479        5.8061510064  MEMB      40              0.0000000000
      3444        40  POPC      H14S           -5.9025773592      -37.1639800145        6.7032657002  MEMB      40              0.0000000000
      3445        40  POPC      C215           -6.5125557219      -38.1309241124        5.0099372220  MEMB      40              0.0000000000
      3446        40  POPC      H15R           -7.5431694878      -38.3265736770        5.3758296876  MEMB      40              0.0000000000
      3447        40  POPC      H15S           -6.2966371960      -39.0903371917        4.4929973499  MEMB      40              0.0000000000
      3448        40  POPC      C216           -6.1762454664      -37.0202400699        4.0114044396  MEMB      40              0.0000000000
      3449        40  POPC      H16R           -5.2691346696      -37.2942157916        3.4313974549  MEMB      40              0.0000000000
      3450        40  POPC      H16S           -6.0476985298      -36.0551772061        4.5466146731  MEMB      40              0.0000000000
      3451        40  POPC      C217           -7.3088006701      -36.8333048491        2.9861467877  MEMB      40              0.0000000000
      3452        40  POPC      H17R           -8.2263246506      -36.6049113557        3.5695046568  MEMB      40              0.0000000000
      3453        40  POPC      H17S           -7.4022332906      -37.8221588378        2.4883921856  MEMB      40              0.0000000000
      3454        40  POPC      C218           -7.0296668467      -35.6987393780        1.9665697779  MEMB      40              0.0000000000
      3455        40  POPC      H18R           -5.9679097826      -35.6884197883        1.6396347878  MEMB      40              0.0000000000
      3456        40  POPC      H18S           -7.2516390578      -34.7096300585        2.4212259184  MEMB      40              0.0000000000
      3457        40  POPC      H18T           -7.7062131586      -35.9255790014        1.1150115085  MEMB      40              0.0000000000
      3458        40  POPC      C33            -1.6715694958      -36.7329976028       12.8374978722  MEMB      40              0.0000000000
      3459        40  POPC      H3X            -1.2910018999      -37.7274034826       13.1547456188  MEMB      40              0.0000000000
      3460        40  POPC      H3Y            -2.0454810063      -36.2311376442       13.7554565861  MEMB      40              0.0000000000
      3461        40  POPC      C34            -0.4820304618      -35.8142074497       12.4268178320  MEMB      40              0.0000000000
      3462        40  POPC      H4X             0.2414679393      -35.6403016566       13.2518195708  MEMB      40              0.0000000000
      3463        40  POPC      H4Y            -0.9057691279      -34.8529691725       12.0651726553  MEMB      40              0.0000000000
      3464        40  POPC      C35             0.2098214318      -36.4927459220       11.2130566037  MEMB      40              0.0000000000
      3465        40  POPC      H5X             0.7356289784      -35.6739538066       10.6769344852  MEMB      40              0.0000000000
      3466        40  POPC      H5Y            -0.4520482145      -36.9932291702       10.4742966211  MEMB      40              0.0000000000
      3467        40  POPC      C36             1.2305365405      -37.5556858320       11.5662367149  MEMB      40              0.0000000000
      3468        40  POPC      H6X             0.6777947815      -38.4082877611       12.0155331893  MEMB      40              0.0000000000
      3469        40  POPC      H6Y             2.0300674941      -37.1977791712       12.2495918476  MEMB      40              0.0000000000
      3470        40  POPC      C37             1.9002436723      -38.1107149593       10.2558704657  MEMB      40              0.0000000000
      3471        40  POPC      H7X             2.7023490624      -38.8186521907       10.5554924634  MEMB      40              0.0000000000
      3472        40  POPC      H7Y             2.3612754609      -37.2114329306        9.7942832022  MEMB      40              0.0000000000
      3473        40  POPC      C38             0.9620873726      -38.8508336672        9.3382484132  MEMB      40              0.0000000000
      3474        40  POPC      H8X            -0.0064975325      -38.3513638904        9.1221602771  MEMB      40              0.0000000000
      3475        40  POPC      H8Y             0.7690314681      -39.8548894423        9.7729006220  MEMB      40              0.0000000000
      3476        40  POPC      C39             1.6555308667      -39.1293058659        8.0094972289  MEMB      40              0.0000000000
      3477        40  POPC      H9X             2.6716256918      -39.5532685876        8.1582523831  MEMB      40              0.0000000000
      3478        40  POPC      H9Y             1.7711776076      -38.1748479025        7.4527589692  MEMB      40              0.0000000000
      3479        40  POPC      C310            0.7436154410      -40.0615057894        7.0989688421  MEMB      40              0.0000000000
      3480        40  POPC      H10X            0.5845281403      -41.0801909440        7.5128437429  MEMB      40              0.0000000000
      3481        40  POPC      H10Y            1.3967500131      -40.1726429462        6.2071252095  MEMB      40              0.0000000000
      3482        40  POPC      C311           -0.5990200857      -39.4293242723        6.6827531913  MEMB      40              0.0000000000
      3483        40  POPC      H11X           -0.4500790607      -38.3420872891        6.5093937133  MEMB      40              0.0000000000
      3484        40  POPC      H11Y           -1.2555040032      -39.5902533642        7.5644848987  MEMB      40              0.0000000000
      3485        40  POPC      C312           -1.2380158884      -39.9590382966        5.4433363359  MEMB      40              0.0000000000
      3486        40  POPC      H12X           -2.2903962675      -39.6038013174        5.4183757767  MEMB      40              0.0000000000
      3487        40  POPC      H12Y           -1.3093487379      -41.0549384145        5.6113710390  MEMB      40              0.0000000000
      3488        40  POPC      C313           -0.6993600859      -39.6475866829        4.1578023618  MEMB      40              0.0000000000
      3489        40  POPC      H13X            0.2476253038      -40.1197185713        3.8192302456  MEMB      40              0.0000000000
      3490        40  POPC      H13Y           -0.4881216755      -38.5568875212        4.1491589980  MEMB      40              0.0000000000
      3491        40  POPC      C314           -1.7104032962      -39.8616632009        2.9515862862  MEMB      40              0.0000000000
      3492        40  POPC      H14X           -2.0125017911      -40.9291239689        3.0114615727  MEMB      40              0.0000000000
      3493        40  POPC      H14Y           -1.1277899591      -39.7039256865        2.0188475653  MEMB      40              0.0000000000
      3494        40  POPC      C315           -2.9886839581      -38.9711485012        2.9284534349  MEMB      40              0.0000000000
      3495        40  POPC      H15X           -2.8206858266      -38.1340978066        3.6393989178  MEMB      40              0.0000000000
      3496        40  POPC      H15Y           -3.8804638125      -39.5281333296        3.2873650140  MEMB      40              0.0000000000
      3497        40  POPC      C316           -3.2872213900      -38.2281498124        1.6421410161  MEMB      40              0.0000000000
      3498        40  POPC      H16X           -2.3006716222      -38.0151737194        1.1777247540  MEMB      40              0.0000000000
      3499        40  POPC      H16Y           -3.7221868361      -37.2089286683        1.7216041999  MEMB      40              0.0000000000
      3500        40  POPC      H16Z           -3.8886209761      -38.9160033261        1.0100820480  MEMB      40              0.0000000000
      3501        41  POPC      N             -12.5453609405      -39.0371751910       21.0374097991  MEMB      41              0.0000000000
      3502        41  POPC      C12           -13.0544621473      -38.7286240082       19.6333339508  MEMB      41              0.0000000000
      3503        41  POPC      H12A          -13.8800873544      -38.0337359189       19.6766163934  MEMB      41              0.0000000000
      3504        41  POPC      H12B          -13.4317696043      -39.6758518535       19.2772463356  MEMB      41              0.0000000000
      3505        41  POPC      C13           -11.3345349972      -40.0411112353       21.1162320221  MEMB      41              0.0000000000
      3506        41  POPC      H13A          -11.6035732936      -41.0665196276       20.9099406935  MEMB      41              0.0000000000
      3507        41  POPC      H13B          -10.5694298365      -39.6671539239       20.4520255884  MEMB      41              0.0000000000
      3508        41  POPC      H13C          -10.9770404673      -39.9547924625       22.1316859968  MEMB      41              0.0000000000
      3509        41  POPC      C14           -12.1433998871      -37.7440402364       21.6996148628  MEMB      41              0.0000000000
      3510        41  POPC      H14A          -11.3266843007      -37.3192042850       21.1349112785  MEMB      41              0.0000000000
      3511        41  POPC      H14B          -13.0032748701      -37.0940119517       21.7665338791  MEMB      41              0.0000000000
      3512        41  POPC      H14C          -11.7932848896      -37.8073294767       22.7193273605  MEMB      41              0.0000000000
      3513        41  POPC      C15           -13.5825588067      -39.5832851300       21.8974946791  MEMB      41              0.0000000000
      3514        41  POPC      H15A          -13.2786681204      -39.6546930139       22.9313955572  MEMB      41              0.0000000000
      3515        41  POPC      H15B          -13.7048727221      -40.6432735245       21.7305693806  MEMB      41              0.0000000000
      3516        41  POPC      H15C          -14.5055734375      -39.0260142596       21.8351005805  MEMB      41              0.0000000000
      3517        41  POPC      C11           -12.1206493289      -38.1069671603       18.6091005528  MEMB      41              0.0000000000
      3518        41  POPC      H11A          -11.6736628414      -37.2029919705       19.0753117938  MEMB      41              0.0000000000
      3519        41  POPC      H11B          -12.6594001592      -37.7288657223       17.7140542841  MEMB      41              0.0000000000
      3520        41  POPC      P             -10.8994926783      -39.8373389890       17.0100027387  MEMB      41              0.0000000000
      3521        41  POPC      O13           -12.1752519886      -40.5521795670       16.7657740864  MEMB      41              0.0000000000
      3522        41  POPC      O14            -9.6184406749      -40.6096835795       16.9784005731  MEMB      41              0.0000000000
      3523        41  POPC      O12           -10.9447670324      -38.9820640263       18.3178383874  MEMB      41              0.0000000000
      3524        41  POPC      O11           -10.7808060372      -38.6974225649       15.9347983433  MEMB      41              0.0000000000
      3525        41  POPC      C1             -9.6692533009      -37.7960452382       15.8607086792  MEMB      41              0.0000000000
      3526        41  POPC      HA             -9.0440385337      -37.8216178981       16.7787355827  MEMB      41              0.0000000000
      3527        41  POPC      HB            -10.1126685854      -36.7776055825       15.8827200447  MEMB      41              0.0000000000
      3528        41  POPC      C2             -8.8059295574      -38.0084670777       14.5651456750  MEMB      41              0.0000000000
      3529        41  POPC      HS             -8.6017156408      -36.9775502460       14.2048293123  MEMB      41              0.0000000000
      3530        41  POPC      O21            -9.5737623025      -38.7346187910       13.5862126211  MEMB      41              0.0000000000
      3531        41  POPC      C21           -10.3562210812      -38.0308771119       12.8166296786  MEMB      41              0.0000000000
      3532        41  POPC      O22           -10.3895253318      -36.8467646224       12.7945717221  MEMB      41              0.0000000000
      3533        41  POPC      C22           -11.1622222003      -38.8928735802       11.9029332165  MEMB      41              0.0000000000
      3534        41  POPC      H2R           -12.1979847173      -38.4981190545       11.9783380544  MEMB      41              0.0000000000
      3535        41  POPC      H2S           -11.2091717565      -39.9089570462       12.3498014743  MEMB      41              0.0000000000
      3536        41  POPC      C3             -7.4675237576      -38.8100937509       14.7300523752  MEMB      41              0.0000000000
      3537        41  POPC      HX             -7.7871039142      -39.7641940525       15.2010963265  MEMB      41              0.0000000000
      3538        41  POPC      HY             -6.8062546048      -38.2668591202       15.4385300171  MEMB      41              0.0000000000
      3539        41  POPC      O31            -6.9022720151      -38.9861165810       13.4136673645  MEMB      41              0.0000000000
      3540        41  POPC      C31            -7.0521005946      -40.1255781915       12.8546350364  MEMB      41              0.0000000000
      3541        41  POPC      O32            -7.8336537279      -41.0405010967       13.1922975429  MEMB      41              0.0000000000
      3542        41  POPC      C32            -6.1722455474      -40.1411896951       11.5891483169  MEMB      41              0.0000000000
      3543        41  POPC      H2X            -6.3877475029      -41.1280759791       11.1266163608  MEMB      41              0.0000000000
      3544        41  POPC      H2Y            -5.0884174238      -40.0895300606       11.8278292288  MEMB      41              0.0000000000
      3545        41  POPC      C23           -10.7834640889      -38.7721545957       10.4572779319  MEMB      41              0.0000000000
      3546        41  POPC      H3R            -9.7080908441      -39.0210840774       10.3310744736  MEMB      41              0.0000000000
      3547        41  POPC      H3S           -10.9333029858      -37.7570353200       10.0313647242  MEMB      41              0.0000000000
      3548        41  POPC      C24           -11.5345380778      -39.7772683673        9.5959495678  MEMB      41              0.0000000000
      3549        41  POPC      H4R           -11.4737245888      -39.5320463583        8.5140577013  MEMB      41              0.0000000000
      3550        41  POPC      H4S           -12.6187404564      -39.7602236057        9.8378901478  MEMB      41              0.0000000000
      3551        41  POPC      C25           -10.9283305555      -41.1384149268        9.7516205886  MEMB      41              0.0000000000
      3552        41  POPC      H5R           -10.7143499252      -41.4901143137       10.7835312064  MEMB      41              0.0000000000
      3553        41  POPC      H5S            -9.8678133510      -41.0340905420        9.4373897727  MEMB      41              0.0000000000
      3554        41  POPC      C26           -11.6619747505      -42.3087826630        9.0830122082  MEMB      41              0.0000000000
      3555        41  POPC      H6R           -12.6617315338      -42.3297460581        9.5671280527  MEMB      41              0.0000000000
      3556        41  POPC      H6S           -11.1360150170      -43.2238594231        9.4298865981  MEMB      41              0.0000000000
      3557        41  POPC      C27           -11.6361381722      -42.1795614660        7.5221649834  MEMB      41              0.0000000000
      3558        41  POPC      H7R           -10.5970126915      -41.9333075187        7.2157363071  MEMB      41              0.0000000000
      3559        41  POPC      H7S           -12.3887277163      -41.3941219464        7.2963005659  MEMB      41              0.0000000000
      3560        41  POPC      C28           -12.0603957035      -43.3571794671        6.6595644943  MEMB      41              0.0000000000
      3561        41  POPC      H8R           -12.0799594471      -43.1292081781        5.5723811233  MEMB      41              0.0000000000
      3562        41  POPC      H8S           -13.0797969852      -43.5971171442        7.0304710110  MEMB      41              0.0000000000
      3563        41  POPC      C29           -11.3961769957      -44.6851365056        6.7789116221  MEMB      41              0.0000000000
      3564        41  POPC      H91           -11.7167625219      -45.3742743263        7.5740934016  MEMB      41              0.0000000000
      3565        41  POPC      C210          -10.2769978214      -45.1100299938        6.1909849320  MEMB      41              0.0000000000
      3566        41  POPC      H101          -10.0200963494      -46.1793803300        6.1688187046  MEMB      41              0.0000000000
      3567        41  POPC      C211           -9.3138184229      -44.4732229380        5.1763494129  MEMB      41              0.0000000000
      3568        41  POPC      H11R           -8.3231073113      -44.6714393402        5.6384349577  MEMB      41              0.0000000000
      3569        41  POPC      H11S           -9.4147657476      -43.3750397721        5.0417238758  MEMB      41              0.0000000000
      3570        41  POPC      C212           -9.4907453047      -45.1594155867        3.7759144735  MEMB      41              0.0000000000
      3571        41  POPC      H12R          -10.4290275346      -44.7921636900        3.3078611443  MEMB      41              0.0000000000
      3572        41  POPC      H12S           -9.5800674282      -46.2382437320        4.0258599613  MEMB      41              0.0000000000
      3573        41  POPC      C213           -8.2613133968      -44.8227955715        2.8462396304  MEMB      41              0.0000000000
      3574        41  POPC      H13R           -8.4350627164      -45.4680534294        1.9586726390  MEMB      41              0.0000000000
      3575        41  POPC      H13S           -7.2965887432      -45.1579685214        3.2836027896  MEMB      41              0.0000000000
      3576        41  POPC      C214           -8.1031044819      -43.3406910651        2.4853324547  MEMB      41              0.0000000000
      3577        41  POPC      H14R           -7.2901448797      -43.1883998196        1.7435618642  MEMB      41              0.0000000000
      3578        41  POPC      H14S           -7.8541660734      -42.7356213274        3.3832418657  MEMB      41              0.0000000000
      3579        41  POPC      C215           -9.2980801446      -42.7882454818        1.6741680730  MEMB      41              0.0000000000
      3580        41  POPC      H15R          -10.2841172841      -43.0438871613        2.1176744205  MEMB      41              0.0000000000
      3581        41  POPC      H15S           -9.2118316226      -43.1690260013        0.6340285685  MEMB      41              0.0000000000
      3582        41  POPC      C216           -9.1444478201      -41.3172571615        1.6089831490  MEMB      41              0.0000000000
      3583        41  POPC      H16R           -8.2686338819      -40.9005101854        1.0671395855  MEMB      41              0.0000000000
      3584        41  POPC      H16S           -9.1286898285      -41.0082386939        2.6760258351  MEMB      41              0.0000000000
      3585        41  POPC      C217          -10.3631801923      -40.6628514357        0.9034890386  MEMB      41              0.0000000000
      3586        41  POPC      H17R          -11.2865190938      -41.1007197538        1.3394207414  MEMB      41              0.0000000000
      3587        41  POPC      H17S          -10.3601300854      -41.1016457565       -0.1171846229  MEMB      41              0.0000000000
      3588        41  POPC      C218          -10.3738515185      -39.1257605389        0.9112771670  MEMB      41              0.0000000000
      3589        41  POPC      H18R          -10.3536208785      -38.7043798249        1.9390660552  MEMB      41              0.0000000000
      3590        41  POPC      H18S          -11.2547298683      -38.6622456975        0.4177905383  MEMB      41              0.0000000000
      3591        41  POPC      H18T           -9.4405729029      -38.7063755241        0.4783463612  MEMB      41              0.0000000000
      3592        41  POPC      C33            -6.5680991485      -39.0306661410       10.6003514105  MEMB      41              0.0000000000
      3593        41  POPC      H3X            -6.3627144269      -37.9830837247       10.9081000865  MEMB      41              0.0000000000
      3594        41  POPC      H3Y            -7.6095725197      -39.1029580010       10.2203139821  MEMB      41              0.0000000000
      3595        41  POPC      C34            -5.6718921720      -39.1494018966        9.3238288556  MEMB      41              0.0000000000
      3596        41  POPC      H4X            -4.6185576031      -39.3690981329        9.6004894263  MEMB      41              0.0000000000
      3597        41  POPC      H4Y            -5.6993415922      -38.1805646393        8.7807620623  MEMB      41              0.0000000000
      3598        41  POPC      C35            -6.0225588126      -40.2995895200        8.3485712100  MEMB      41              0.0000000000
      3599        41  POPC      H5X            -6.0601417675      -41.2468952867        8.9278123292  MEMB      41              0.0000000000
      3600        41  POPC      H5Y            -5.1964189911      -40.2384221426        7.6082517114  MEMB      41              0.0000000000
      3601        41  POPC      C36            -7.3883159003      -40.1708947977        7.6889412774  MEMB      41              0.0000000000
      3602        41  POPC      H6X            -8.2283835656      -39.9321066131        8.3756637169  MEMB      41              0.0000000000
      3603        41  POPC      H6Y            -7.6818316424      -41.1677705191        7.2959934459  MEMB      41              0.0000000000
      3604        41  POPC      C37            -7.4183501657      -39.0999196070        6.6449824373  MEMB      41              0.0000000000
      3605        41  POPC      H7X            -6.8053835249      -39.3887296849        5.7645393962  MEMB      41              0.0000000000
      3606        41  POPC      H7Y            -6.9390870884      -38.1519835224        6.9706286997  MEMB      41              0.0000000000
      3607        41  POPC      C38            -8.8041074315      -38.7289736184        6.2424189372  MEMB      41              0.0000000000
      3608        41  POPC      H8X            -9.4721727530      -38.5583205342        7.1135606079  MEMB      41              0.0000000000
      3609        41  POPC      H8Y            -9.2409123194      -39.5139789536        5.5887460169  MEMB      41              0.0000000000
      3610        41  POPC      C39            -8.7316945500      -37.4695666539        5.2768147683  MEMB      41              0.0000000000
      3611        41  POPC      H9X            -7.9544838363      -37.7931130287        4.5518445104  MEMB      41              0.0000000000
      3612        41  POPC      H9Y            -8.3938518177      -36.5473613961        5.7961622535  MEMB      41              0.0000000000
      3613        41  POPC      C310          -10.0723515519      -37.2227082898        4.6458446613  MEMB      41              0.0000000000
      3614        41  POPC      H10X          -10.4728158742      -38.2301925097        4.4030989144  MEMB      41              0.0000000000
      3615        41  POPC      H10Y          -10.0409187632      -36.6840700244        3.6746584356  MEMB      41              0.0000000000
      3616        41  POPC      C311          -11.0074240577      -36.4575541830        5.5945747352  MEMB      41              0.0000000000
      3617        41  POPC      H11X          -10.5636834355      -35.4446770935        5.7017890126  MEMB      41              0.0000000000
      3618        41  POPC      H11Y          -11.0952177850      -37.1544863033        6.4553296630  MEMB      41              0.0000000000
      3619        41  POPC      C312          -12.4197804521      -36.2803313817        5.0030960212  MEMB      41              0.0000000000
      3620        41  POPC      H12X          -12.3443645809      -35.9119969894        3.9576465108  MEMB      41              0.0000000000
      3621        41  POPC      H12Y          -12.9213127093      -35.5074896232        5.6239830597  MEMB      41              0.0000000000
      3622        41  POPC      C313          -13.3727915465      -37.5300797441        5.0619368025  MEMB      41              0.0000000000
      3623        41  POPC      H13X          -14.3901813319      -37.1030088499        5.1917433713  MEMB      41              0.0000000000
      3624        41  POPC      H13Y          -13.2254121943      -37.9563155342        6.0772802878  MEMB      41              0.0000000000
      3625        41  POPC      C314          -13.4636372368      -38.5214058189        3.9150102461  MEMB      41              0.0000000000
      3626        41  POPC      H14X          -14.1974068594      -39.2678256317        4.2875161412  MEMB      41              0.0000000000
      3627        41  POPC      H14Y          -12.5250515614      -39.0921134164        3.7486657585  MEMB      41              0.0000000000
      3628        41  POPC      C315          -14.0158627399      -37.9445724910        2.6006583154  MEMB      41              0.0000000000
      3629        41  POPC      H15X          -13.2182493204      -37.3265503588        2.1357037180  MEMB      41              0.0000000000
      3630        41  POPC      H15Y          -14.8275605621      -37.2054410544        2.7713995361  MEMB      41              0.0000000000
      3631        41  POPC      C316          -14.4005112142      -38.9346315369        1.4140022401  MEMB      41              0.0000000000
      3632        41  POPC      H16X          -13.4070334773      -39.3365635345        1.1211295851  MEMB      41              0.0000000000
      3633        41  POPC      H16Y          -14.8938245097      -38.2270904124        0.7137529734  MEMB      41              0.0000000000
      3634        41  POPC      H16Z          -15.0955659706      -39.7561083472        1.6904000814  MEMB      41              0.0000000000
      3635        42  POPC      N             -19.6882566194      -29.9471745464       20.0216046484  MEMB      42              0.0000000000
      3636        42  POPC      C12           -20.6551524286      -29.1462184840       19.1956816691  MEMB      42              0.0000000000
      3637        42  POPC      H12A          -20.2754497037      -28.1488860576       19.0296881658  MEMB      42              0.0000000000
      3638        42  POPC      H12B          -21.5220355218      -28.9459929279       19.8079099341  MEMB      42              0.0000000000
      3639        42  POPC      C13           -18.4821088505      -30.3877354623       19.1853203217  MEMB      42              0.0000000000
      3640        42  POPC      H13A          -18.8312905356      -31.2310606368       18.6080208162  MEMB      42              0.0000000000
      3641        42  POPC      H13B          -18.0753129929      -29.6605711487       18.4981892379  MEMB      42              0.0000000000
      3642        42  POPC      H13C          -17.7155141944      -30.7611754889       19.8480986879  MEMB      42              0.0000000000
      3643        42  POPC      C14           -19.2740369428      -28.9302648216       21.0901786810  MEMB      42              0.0000000000
      3644        42  POPC      H14A          -20.1245594501      -28.6015879143       21.6689558607  MEMB      42              0.0000000000
      3645        42  POPC      H14B          -18.7129209557      -29.4852126197       21.8274586142  MEMB      42              0.0000000000
      3646        42  POPC      H14C          -18.7179144372      -28.0950187404       20.6908142028  MEMB      42              0.0000000000
      3647        42  POPC      C15           -20.3805275023      -31.0505406208       20.6963890586  MEMB      42              0.0000000000
      3648        42  POPC      H15A          -21.3503784705      -30.7718221497       21.0812334028  MEMB      42              0.0000000000
      3649        42  POPC      H15B          -19.6844799499      -31.4543175037       21.4167237749  MEMB      42              0.0000000000
      3650        42  POPC      H15C          -20.5354942172      -31.7040115302       19.8505989255  MEMB      42              0.0000000000
      3651        42  POPC      C11           -21.1124060646      -29.7566015346       17.8252293647  MEMB      42              0.0000000000
      3652        42  POPC      H11A          -20.2684800095      -29.8097511756       17.1046151533  MEMB      42              0.0000000000
      3653        42  POPC      H11B          -21.8630580186      -29.0835959287       17.3584251144  MEMB      42              0.0000000000
      3654        42  POPC      P             -22.9907988287      -31.5337712259       18.2824450465  MEMB      42              0.0000000000
      3655        42  POPC      O13           -23.6665235200      -30.4921754560       19.0485242043  MEMB      42              0.0000000000
      3656        42  POPC      O14           -23.0083558741      -32.8856631503       18.8339445518  MEMB      42              0.0000000000
      3657        42  POPC      O12           -21.5053637999      -31.1687763036       17.9357014986  MEMB      42              0.0000000000
      3658        42  POPC      O11           -23.6944889676      -31.7173854963       16.8849809510  MEMB      42              0.0000000000
      3659        42  POPC      C1            -23.2268544373      -32.4027667290       15.7908850105  MEMB      42              0.0000000000
      3660        42  POPC      HA            -23.7783172966      -33.3671949039       15.8002713919  MEMB      42              0.0000000000
      3661        42  POPC      HB            -22.1440706750      -32.6103841598       15.9279810433  MEMB      42              0.0000000000
      3662        42  POPC      C2            -23.4606004723      -31.5447873506       14.5024077908  MEMB      42              0.0000000000
      3663        42  POPC      HS            -23.3986556346      -32.2378991149       13.6363363805  MEMB      42              0.0000000000
      3664        42  POPC      O21           -22.4696000141      -30.4839506611       14.3958060557  MEMB      42              0.0000000000
      3665        42  POPC      C21           -21.2336688521      -30.9676073447       13.9646850641  MEMB      42              0.0000000000
      3666        42  POPC      O22           -21.0042426305      -32.1380261965       13.6894236794  MEMB      42              0.0000000000
      3667        42  POPC      C22           -20.1630195880      -29.9099000713       13.8883131413  MEMB      42              0.0000000000
      3668        42  POPC      H2R           -19.4027712710      -30.2533822957       14.6220455055  MEMB      42              0.0000000000
      3669        42  POPC      H2S           -20.4297744766      -28.8782910944       14.2028693743  MEMB      42              0.0000000000
      3670        42  POPC      C3            -24.9052567720      -30.8798726048       14.5415581354  MEMB      42              0.0000000000
      3671        42  POPC      HX            -24.8423666093      -30.2078071230       15.4239945406  MEMB      42              0.0000000000
      3672        42  POPC      HY            -25.6103721010      -31.7167738375       14.7332076122  MEMB      42              0.0000000000
      3673        42  POPC      O31           -25.0839762239      -29.9821485737       13.4384407530  MEMB      42              0.0000000000
      3674        42  POPC      C31           -25.5145367921      -30.5181362304       12.3689613581  MEMB      42              0.0000000000
      3675        42  POPC      O32           -26.0827026659      -31.6046755261       12.2900919110  MEMB      42              0.0000000000
      3676        42  POPC      C32           -25.4643339346      -29.4633819463       11.2520925609  MEMB      42              0.0000000000
      3677        42  POPC      H2X           -24.4476683629      -29.0974866538       10.9935720674  MEMB      42              0.0000000000
      3678        42  POPC      H2Y           -25.8752333685      -28.5685712578       11.7666764684  MEMB      42              0.0000000000
      3679        42  POPC      C23           -19.5647337056      -29.7894804950       12.4542615578  MEMB      42              0.0000000000
      3680        42  POPC      H3R           -19.2312267703      -30.7578775274       12.0237949551  MEMB      42              0.0000000000
      3681        42  POPC      H3S           -18.5894046891      -29.2838869638       12.6198798381  MEMB      42              0.0000000000
      3682        42  POPC      C24           -20.3504201440      -28.8711567583       11.4625287459  MEMB      42              0.0000000000
      3683        42  POPC      H4R           -20.8738417601      -28.0507369757       11.9984972705  MEMB      42              0.0000000000
      3684        42  POPC      H4S           -21.0671648380      -29.5498648603       10.9526725671  MEMB      42              0.0000000000
      3685        42  POPC      C25           -19.4392503264      -28.5067385091       10.3114219891  MEMB      42              0.0000000000
      3686        42  POPC      H5R           -18.9594947596      -29.4549854963        9.9874113650  MEMB      42              0.0000000000
      3687        42  POPC      H5S           -18.6400712473      -27.7967943236       10.6140985183  MEMB      42              0.0000000000
      3688        42  POPC      C26           -20.0951234251      -27.9001039820        9.0104443645  MEMB      42              0.0000000000
      3689        42  POPC      H6R           -20.5114046397      -26.8995363828        9.2551802582  MEMB      42              0.0000000000
      3690        42  POPC      H6S           -20.9151244886      -28.5697119159        8.6734807055  MEMB      42              0.0000000000
      3691        42  POPC      C27           -19.0006768490      -27.7704882287        7.9646435158  MEMB      42              0.0000000000
      3692        42  POPC      H7R           -18.3944342190      -28.7011888937        7.9888731147  MEMB      42              0.0000000000
      3693        42  POPC      H7S           -18.3112946867      -26.9038954415        8.0545864960  MEMB      42              0.0000000000
      3694        42  POPC      C28           -19.6096497671      -27.7029692877        6.6291969857  MEMB      42              0.0000000000
      3695        42  POPC      H8R           -20.1973888025      -28.6430293704        6.5572894346  MEMB      42              0.0000000000
      3696        42  POPC      H8S           -18.7219954983      -27.8227021604        5.9718885796  MEMB      42              0.0000000000
      3697        42  POPC      C29           -20.4510700747      -26.4327117730        6.2640314599  MEMB      42              0.0000000000
      3698        42  POPC      H91           -19.9035446789      -25.4862576042        6.3842010176  MEMB      42              0.0000000000
      3699        42  POPC      C210          -21.7079842835      -26.5191326917        5.8117763875  MEMB      42              0.0000000000
      3700        42  POPC      H101          -22.2393271266      -25.6157679911        5.4777002179  MEMB      42              0.0000000000
      3701        42  POPC      C211          -22.5654694860      -27.6974554381        5.5346190722  MEMB      42              0.0000000000
      3702        42  POPC      H11R          -22.0885925278      -28.7009027389        5.5361716723  MEMB      42              0.0000000000
      3703        42  POPC      H11S          -23.0212626913      -27.4450620765        4.5533591977  MEMB      42              0.0000000000
      3704        42  POPC      C212          -23.7449438335      -27.6044317559        6.6074439371  MEMB      42              0.0000000000
      3705        42  POPC      H12R          -24.0763619143      -26.5444467190        6.6376923522  MEMB      42              0.0000000000
      3706        42  POPC      H12S          -23.2915290292      -28.0297136725        7.5282428985  MEMB      42              0.0000000000
      3707        42  POPC      C213          -24.9060353116      -28.5821971942        6.2072866477  MEMB      42              0.0000000000
      3708        42  POPC      H13R          -25.4606729233      -28.9041553322        7.1145033593  MEMB      42              0.0000000000
      3709        42  POPC      H13S          -24.3838515380      -29.5005118861        5.8632755726  MEMB      42              0.0000000000
      3710        42  POPC      C214          -25.7951530798      -28.0374406681        5.0864547395  MEMB      42              0.0000000000
      3711        42  POPC      H14R          -25.2517104712      -27.7093401968        4.1746762503  MEMB      42              0.0000000000
      3712        42  POPC      H14S          -26.1392342190      -27.0461556129        5.4515341514  MEMB      42              0.0000000000
      3713        42  POPC      C215          -26.9448785079      -28.9907472598        4.5954225595  MEMB      42              0.0000000000
      3714        42  POPC      H15R          -27.7441987876      -28.4376570954        4.0573710199  MEMB      42              0.0000000000
      3715        42  POPC      H15S          -27.4490608135      -29.4081595735        5.4931348321  MEMB      42              0.0000000000
      3716        42  POPC      C216          -26.4392179467      -30.2129294754        3.7842772104  MEMB      42              0.0000000000
      3717        42  POPC      H16R          -27.3304706610      -30.7988213718        3.4732772530  MEMB      42              0.0000000000
      3718        42  POPC      H16S          -25.7569222630      -30.8152216971        4.4214878372  MEMB      42              0.0000000000
      3719        42  POPC      C217          -25.6250975031      -29.8572791529        2.5162231482  MEMB      42              0.0000000000
      3720        42  POPC      H17R          -25.5942648743      -30.7082982379        1.8026838486  MEMB      42              0.0000000000
      3721        42  POPC      H17S          -24.6215772943      -29.4621083655        2.7828839790  MEMB      42              0.0000000000
      3722        42  POPC      C218          -26.3694139599      -28.7073204018        1.7580018558  MEMB      42              0.0000000000
      3723        42  POPC      H18R          -27.4561718424      -28.9091436962        1.6459956581  MEMB      42              0.0000000000
      3724        42  POPC      H18S          -26.0476045188      -28.5279035573        0.7098757123  MEMB      42              0.0000000000
      3725        42  POPC      H18T          -26.1754000414      -27.7584629659        2.3023813103  MEMB      42              0.0000000000
      3726        42  POPC      C33           -26.2450570792      -29.9566989434       10.0781593898  MEMB      42              0.0000000000
      3727        42  POPC      H3X           -26.3073130404      -29.0746626415        9.4055101058  MEMB      42              0.0000000000
      3728        42  POPC      H3Y           -27.2405900652      -30.1117101048       10.5463543059  MEMB      42              0.0000000000
      3729        42  POPC      C34           -25.6860773681      -31.1526536679        9.3807920066  MEMB      42              0.0000000000
      3730        42  POPC      H4X           -26.4104690165      -31.3968371312        8.5745957297  MEMB      42              0.0000000000
      3731        42  POPC      H4Y           -25.6134240573      -32.1299089903        9.9042560736  MEMB      42              0.0000000000
      3732        42  POPC      C35           -24.2135184901      -31.1414225102        8.8908435675  MEMB      42              0.0000000000
      3733        42  POPC      H5X           -23.5228370050      -31.2763762990        9.7505339659  MEMB      42              0.0000000000
      3734        42  POPC      H5Y           -23.8808259911      -30.2875127339        8.2627709219  MEMB      42              0.0000000000
      3735        42  POPC      C36           -24.0385718205      -32.2035413130        7.8201549710  MEMB      42              0.0000000000
      3736        42  POPC      H6X           -24.2320559670      -31.9303609294        6.7607883432  MEMB      42              0.0000000000
      3737        42  POPC      H6Y           -24.8539751809      -32.9502923144        7.9287892088  MEMB      42              0.0000000000
      3738        42  POPC      C37           -22.7736397488      -32.9396506553        7.7471465686  MEMB      42              0.0000000000
      3739        42  POPC      H7X           -22.8753504983      -33.8161166138        7.0720289756  MEMB      42              0.0000000000
      3740        42  POPC      H7Y           -22.7098413419      -33.3506441357        8.7773576989  MEMB      42              0.0000000000
      3741        42  POPC      C38           -21.5433515810      -32.1168219977        7.3710214838  MEMB      42              0.0000000000
      3742        42  POPC      H8X           -21.6138553525      -31.0368399615        7.6219970148  MEMB      42              0.0000000000
      3743        42  POPC      H8Y           -21.4924414753      -32.0627325178        6.2625067415  MEMB      42              0.0000000000
      3744        42  POPC      C39           -20.2144920264      -32.7021421797        7.7904717578  MEMB      42              0.0000000000
      3745        42  POPC      H9X           -20.1086530628      -33.7035538828        7.3211182113  MEMB      42              0.0000000000
      3746        42  POPC      H9Y           -20.3712728351      -32.8647402412        8.8782696892  MEMB      42              0.0000000000
      3747        42  POPC      C310          -19.0289334706      -31.6982923083        7.5187002697  MEMB      42              0.0000000000
      3748        42  POPC      H10X          -18.0441427995      -31.9778017563        7.9504210154  MEMB      42              0.0000000000
      3749        42  POPC      H10Y          -19.2866811825      -30.8790654556        8.2235087453  MEMB      42              0.0000000000
      3750        42  POPC      C311          -18.8158657557      -31.2428666533        5.9999913421  MEMB      42              0.0000000000
      3751        42  POPC      H11X          -17.8731045162      -30.6646344570        5.8943019017  MEMB      42              0.0000000000
      3752        42  POPC      H11Y          -19.5678428222      -30.5271253157        5.6043070267  MEMB      42              0.0000000000
      3753        42  POPC      C312          -18.7331708549      -32.4447772128        5.0348396389  MEMB      42              0.0000000000
      3754        42  POPC      H12X          -19.7305147678      -32.8731966088        4.7980205711  MEMB      42              0.0000000000
      3755        42  POPC      H12Y          -18.0610360864      -33.2402071806        5.4219405347  MEMB      42              0.0000000000
      3756        42  POPC      C313          -17.9239098042      -31.9668217807        3.7634436464  MEMB      42              0.0000000000
      3757        42  POPC      H13X          -17.6143450495      -32.8459324234        3.1587485335  MEMB      42              0.0000000000
      3758        42  POPC      H13Y          -17.0610570480      -31.3488675911        4.0919826583  MEMB      42              0.0000000000
      3759        42  POPC      C314          -18.7175860379      -31.0203489918        2.8609758740  MEMB      42              0.0000000000
      3760        42  POPC      H14X          -18.0698228115      -30.6092818717        2.0573921035  MEMB      42              0.0000000000
      3761        42  POPC      H14Y          -19.0821014646      -30.1884743495        3.5008458488  MEMB      42              0.0000000000
      3762        42  POPC      C315          -19.7981546054      -31.6633201985        2.1193297587  MEMB      42              0.0000000000
      3763        42  POPC      H15X          -20.3340890177      -32.3699378902        2.7884984667  MEMB      42              0.0000000000
      3764        42  POPC      H15Y          -19.4385325269      -32.1232927405        1.1741231030  MEMB      42              0.0000000000
      3765        42  POPC      C316          -20.8914605574      -30.7493026562        1.6509456026  MEMB      42              0.0000000000
      3766        42  POPC      H16X          -20.5107632641      -29.7939485442        1.2306023831  MEMB      42              0.0000000000
      3767        42  POPC      H16Y          -21.7125301209      -30.5844309993        2.3810027127  MEMB      42              0.0000000000
      3768        42  POPC      H16Z          -21.3440600167      -31.1719474687        0.7285330253  MEMB      42              0.0000000000
      3769        43  POPC      N             -40.4147681871       11.9093948689       20.4727471987  MEMB      43              0.0000000000
      3770        43  POPC      C12           -39.5320991313       13.1720561952       20.5128193648  MEMB      43              0.0000000000
      3771        43  POPC      H12A          -39.4074069581       13.2583515851       21.5821206009  MEMB      43              0.0000000000
      3772        43  POPC      H12B          -40.0582596505       13.9561401865       19.9886366936  MEMB      43              0.0000000000
      3773        43  POPC      C13           -40.9910366768       11.7482827531       19.1432806356  MEMB      43              0.0000000000
      3774        43  POPC      H13A          -41.7698640300       11.0020422755       19.1976213336  MEMB      43              0.0000000000
      3775        43  POPC      H13B          -41.3996631531       12.7181571245       18.9008596058  MEMB      43              0.0000000000
      3776        43  POPC      H13C          -40.2340449524       11.4422275135       18.4363904642  MEMB      43              0.0000000000
      3777        43  POPC      C14           -39.7271542612       10.5596538416       20.7891674217  MEMB      43              0.0000000000
      3778        43  POPC      H14A          -40.5547458649        9.8945992388       20.9871433950  MEMB      43              0.0000000000
      3779        43  POPC      H14B          -39.1190902790       10.2919577047       19.9376999512  MEMB      43              0.0000000000
      3780        43  POPC      H14C          -39.0074264346       10.7483723626       21.5719683150  MEMB      43              0.0000000000
      3781        43  POPC      C15           -41.4966279828       12.2455570975       21.4511404209  MEMB      43              0.0000000000
      3782        43  POPC      H15A          -41.0818335031       12.2635409307       22.4481471787  MEMB      43              0.0000000000
      3783        43  POPC      H15B          -42.2861216108       11.5266293375       21.2891442153  MEMB      43              0.0000000000
      3784        43  POPC      H15C          -41.8159738462       13.2707815465       21.3356713806  MEMB      43              0.0000000000
      3785        43  POPC      C11           -38.1056594896       13.2381152002       19.8435051151  MEMB      43              0.0000000000
      3786        43  POPC      H11A          -37.3106697077       12.7959333963       20.4813040702  MEMB      43              0.0000000000
      3787        43  POPC      H11B          -37.8847621800       14.3234644798       19.7566580523  MEMB      43              0.0000000000
      3788        43  POPC      P             -38.0611076214       13.0795270327       17.2786145532  MEMB      43              0.0000000000
      3789        43  POPC      O13           -39.0117770867       14.2247119016       17.2876594680  MEMB      43              0.0000000000
      3790        43  POPC      O14           -38.1085161851       12.0514053054       16.1943880544  MEMB      43              0.0000000000
      3791        43  POPC      O12           -38.0342417448       12.3572528287       18.7103177110  MEMB      43              0.0000000000
      3792        43  POPC      O11           -36.6228460156       13.6203045826       17.3163600201  MEMB      43              0.0000000000
      3793        43  POPC      C1            -35.4450871263       12.8670277084       17.5579255716  MEMB      43              0.0000000000
      3794        43  POPC      HA            -35.5934885106       11.7859277841       17.7665424852  MEMB      43              0.0000000000
      3795        43  POPC      HB            -35.0874230402       13.3738377792       18.4796310261  MEMB      43              0.0000000000
      3796        43  POPC      C2            -34.4425357294       13.0061862421       16.3486491114  MEMB      43              0.0000000000
      3797        43  POPC      HS            -33.9485318970       13.9721904288       16.5876407818  MEMB      43              0.0000000000
      3798        43  POPC      O21           -35.1349592131       13.1263166342       15.0981368144  MEMB      43              0.0000000000
      3799        43  POPC      C21           -34.4943694105       13.8725515507       14.1740223937  MEMB      43              0.0000000000
      3800        43  POPC      O22           -33.2820052961       14.0094999574       14.1514405708  MEMB      43              0.0000000000
      3801        43  POPC      C22           -35.4765914661       14.3878448859       13.1612304466  MEMB      43              0.0000000000
      3802        43  POPC      H2R           -35.1281966296       15.3271770655       12.6810248469  MEMB      43              0.0000000000
      3803        43  POPC      H2S           -36.4399667561       14.6240231757       13.6616791467  MEMB      43              0.0000000000
      3804        43  POPC      C3            -33.6528460522       11.7030103388       16.3149192668  MEMB      43              0.0000000000
      3805        43  POPC      HX            -33.2479618613       11.5770955825       17.3418250103  MEMB      43              0.0000000000
      3806        43  POPC      HY            -32.8126628643       11.7430359585       15.5891016118  MEMB      43              0.0000000000
      3807        43  POPC      O31           -34.6745302767       10.7034251877       16.0451762358  MEMB      43              0.0000000000
      3808        43  POPC      C31           -34.6848055744        9.9835066529       14.9173964651  MEMB      43              0.0000000000
      3809        43  POPC      O32           -33.8489736589       10.0156563245       14.0268246242  MEMB      43              0.0000000000
      3810        43  POPC      C32           -35.9014309366        9.0582699798       14.9265200325  MEMB      43              0.0000000000
      3811        43  POPC      H2X           -36.6067153034        9.3205437540       15.7438984051  MEMB      43              0.0000000000
      3812        43  POPC      H2Y           -35.4773307179        8.0621669748       15.1759977233  MEMB      43              0.0000000000
      3813        43  POPC      C23           -35.4671279531       13.3744875877       12.0214323600  MEMB      43              0.0000000000
      3814        43  POPC      H3R           -35.8275351399       12.3632550561       12.3075030544  MEMB      43              0.0000000000
      3815        43  POPC      H3S           -34.4351138213       13.0720954868       11.7424580821  MEMB      43              0.0000000000
      3816        43  POPC      C24           -36.3723651238       13.7788026527       10.8669108313  MEMB      43              0.0000000000
      3817        43  POPC      H4R           -36.4060813119       12.9369526954       10.1427066907  MEMB      43              0.0000000000
      3818        43  POPC      H4S           -35.9537131557       14.7165249871       10.4429671577  MEMB      43              0.0000000000
      3819        43  POPC      C25           -37.8592478849       14.1476118820       11.1713100865  MEMB      43              0.0000000000
      3820        43  POPC      H5R           -37.9008286239       14.9106090249       11.9778006077  MEMB      43              0.0000000000
      3821        43  POPC      H5S           -38.2853477903       13.2293100196       11.6290011111  MEMB      43              0.0000000000
      3822        43  POPC      C26           -38.6297515614       14.5891439483        9.9862700554  MEMB      43              0.0000000000
      3823        43  POPC      H6R           -37.9763657173       14.1053333317        9.2290805249  MEMB      43              0.0000000000
      3824        43  POPC      H6S           -38.7116114553       15.6968957961       10.0087619083  MEMB      43              0.0000000000
      3825        43  POPC      C27           -40.0218871502       14.0874094674        9.8903341398  MEMB      43              0.0000000000
      3826        43  POPC      H7R           -40.7862594298       14.7490812842       10.3510359679  MEMB      43              0.0000000000
      3827        43  POPC      H7S           -40.2208214423       13.0499320702       10.2344078925  MEMB      43              0.0000000000
      3828        43  POPC      C28           -40.5340222505       13.9640972295        8.4345261568  MEMB      43              0.0000000000
      3829        43  POPC      H8R           -41.5244949503       13.4628294378        8.3896366649  MEMB      43              0.0000000000
      3830        43  POPC      H8S           -39.8688554952       13.2451276221        7.9101628813  MEMB      43              0.0000000000
      3831        43  POPC      C29           -40.5813309720       15.1921006852        7.4949587276  MEMB      43              0.0000000000
      3832        43  POPC      H91           -41.4580776439       15.8196143631        7.7130007912  MEMB      43              0.0000000000
      3833        43  POPC      C210          -39.7152920624       15.4673157317        6.4814684909  MEMB      43              0.0000000000
      3834        43  POPC      H101          -39.9370719260       16.3607141289        5.8792619657  MEMB      43              0.0000000000
      3835        43  POPC      C211          -38.5375856381       14.6818875385        6.0792298841  MEMB      43              0.0000000000
      3836        43  POPC      H11R          -38.8435897393       13.8654269642        5.3906993080  MEMB      43              0.0000000000
      3837        43  POPC      H11S          -38.0221802883       14.2377666971        6.9575438417  MEMB      43              0.0000000000
      3838        43  POPC      C212          -37.5038754408       15.5916821636        5.3032099832  MEMB      43              0.0000000000
      3839        43  POPC      H12R          -37.2597378807       16.5151611811        5.8705762223  MEMB      43              0.0000000000
      3840        43  POPC      H12S          -37.9405454756       15.9861244885        4.3608427461  MEMB      43              0.0000000000
      3841        43  POPC      C213          -36.1842316386       14.9451066370        4.9203143048  MEMB      43              0.0000000000
      3842        43  POPC      H13R          -35.7303082277       15.6336204809        4.1758526957  MEMB      43              0.0000000000
      3843        43  POPC      H13S          -36.3744995205       14.0374817488        4.3084839957  MEMB      43              0.0000000000
      3844        43  POPC      C214          -35.1463446379       14.6941133491        5.9954279085  MEMB      43              0.0000000000
      3845        43  POPC      H14R          -35.4364048628       13.9388162928        6.7568164917  MEMB      43              0.0000000000
      3846        43  POPC      H14S          -35.0481558634       15.6644329764        6.5275560252  MEMB      43              0.0000000000
      3847        43  POPC      C215          -33.7995118030       14.4264840730        5.4639445296  MEMB      43              0.0000000000
      3848        43  POPC      H15R          -33.0343990697       14.4987192696        6.2662574563  MEMB      43              0.0000000000
      3849        43  POPC      H15S          -33.5771853485       15.3029664872        4.8184445702  MEMB      43              0.0000000000
      3850        43  POPC      C216          -33.6328632096       13.1900292177        4.6098775964  MEMB      43              0.0000000000
      3851        43  POPC      H16R          -34.5834643668       12.6814988688        4.3414091427  MEMB      43              0.0000000000
      3852        43  POPC      H16S          -33.1269805653       12.3573118991        5.1437183611  MEMB      43              0.0000000000
      3853        43  POPC      C217          -33.0068368295       13.4508995880        3.2414106910  MEMB      43              0.0000000000
      3854        43  POPC      H17R          -33.2238610662       12.5117969670        2.6888636459  MEMB      43              0.0000000000
      3855        43  POPC      H17S          -31.8975728139       13.5065831045        3.2139581261  MEMB      43              0.0000000000
      3856        43  POPC      C218          -33.6826767406       14.4671319672        2.3007471290  MEMB      43              0.0000000000
      3857        43  POPC      H18R          -33.2145225524       14.4527053558        1.2933015869  MEMB      43              0.0000000000
      3858        43  POPC      H18S          -33.4297513904       15.4580749034        2.7347769446  MEMB      43              0.0000000000
      3859        43  POPC      H18T          -34.7853444554       14.4064023275        2.1792703869  MEMB      43              0.0000000000
      3860        43  POPC      C33           -36.5593783664        9.0567161624       13.5546904355  MEMB      43              0.0000000000
      3861        43  POPC      H3X           -37.2995084516        8.2299199678       13.6088790420  MEMB      43              0.0000000000
      3862        43  POPC      H3Y           -35.7499123772        8.7978246162       12.8391061819  MEMB      43              0.0000000000
      3863        43  POPC      C34           -37.3224676258       10.3506004013       13.3439658969  MEMB      43              0.0000000000
      3864        43  POPC      H4X           -36.6306146450       11.2194616974       13.3167548240  MEMB      43              0.0000000000
      3865        43  POPC      H4Y           -37.8755130496       10.6500659340       14.2598162486  MEMB      43              0.0000000000
      3866        43  POPC      C35           -38.3781742458       10.2805760886       12.2273491123  MEMB      43              0.0000000000
      3867        43  POPC      H5X           -38.7977867092       11.3066931032       12.1543421957  MEMB      43              0.0000000000
      3868        43  POPC      H5Y           -39.2558017689        9.7205983886       12.6153122947  MEMB      43              0.0000000000
      3869        43  POPC      C36           -38.0305125182        9.7345577511       10.8740218638  MEMB      43              0.0000000000
      3870        43  POPC      H6X           -37.5824046881        8.7182861061       10.8473288453  MEMB      43              0.0000000000
      3871        43  POPC      H6Y           -37.2070133390       10.3716941266       10.4864288074  MEMB      43              0.0000000000
      3872        43  POPC      C37           -39.2724327008        9.5887804198        9.9969031348  MEMB      43              0.0000000000
      3873        43  POPC      H7X           -39.8902202631       10.5099498960       10.0609799351  MEMB      43              0.0000000000
      3874        43  POPC      H7Y           -39.9682682041        8.8003003973       10.3552798871  MEMB      43              0.0000000000
      3875        43  POPC      C38           -39.0412368352        9.1429388378        8.5583687206  MEMB      43              0.0000000000
      3876        43  POPC      H8X           -40.0379171896        8.9708797407        8.0986460983  MEMB      43              0.0000000000
      3877        43  POPC      H8Y           -38.5193174623        8.1625394685        8.5312056750  MEMB      43              0.0000000000
      3878        43  POPC      C39           -38.3785457161       10.1684824883        7.6853942874  MEMB      43              0.0000000000
      3879        43  POPC      H9X           -37.3183422829       10.2855865136        7.9961616060  MEMB      43              0.0000000000
      3880        43  POPC      H9Y           -39.0083683084       11.0817965429        7.7445728678  MEMB      43              0.0000000000
      3881        43  POPC      C310          -38.2340515386        9.8276057341        6.1928224915  MEMB      43              0.0000000000
      3882        43  POPC      H10X          -39.1953984089       10.0858303743        5.6994126487  MEMB      43              0.0000000000
      3883        43  POPC      H10Y          -37.9717656089        8.7520282412        6.0997644125  MEMB      43              0.0000000000
      3884        43  POPC      C311          -37.0648632025       10.4291378904        5.4833630094  MEMB      43              0.0000000000
      3885        43  POPC      H11X          -36.0923844585       10.2770127488        5.9985950591  MEMB      43              0.0000000000
      3886        43  POPC      H11Y          -37.0931829078       11.5338292823        5.3685759316  MEMB      43              0.0000000000
      3887        43  POPC      C312          -37.0228296512       10.0576999215        3.9920981547  MEMB      43              0.0000000000
      3888        43  POPC      H12X          -37.2606127283        8.9728847335        3.9611672924  MEMB      43              0.0000000000
      3889        43  POPC      H12Y          -35.9832859617       10.1884735988        3.6225472256  MEMB      43              0.0000000000
      3890        43  POPC      C313          -38.0177298013       10.7175639999        3.0761177667  MEMB      43              0.0000000000
      3891        43  POPC      H13X          -38.9937390536       10.7496868774        3.6059253629  MEMB      43              0.0000000000
      3892        43  POPC      H13Y          -38.0571962876       10.1716157927        2.1093171675  MEMB      43              0.0000000000
      3893        43  POPC      C314          -37.7716914178       12.2258569112        2.7056496738  MEMB      43              0.0000000000
      3894        43  POPC      H14X          -36.7035160071       12.4650878855        2.5156761119  MEMB      43              0.0000000000
      3895        43  POPC      H14Y          -37.9295542602       12.7405872434        3.6774796564  MEMB      43              0.0000000000
      3896        43  POPC      C315          -38.7426866340       12.7167169025        1.6148265807  MEMB      43              0.0000000000
      3897        43  POPC      H15X          -38.6185289154       13.8190086057        1.5527078245  MEMB      43              0.0000000000
      3898        43  POPC      H15Y          -39.8153815721       12.5802243609        1.8698117210  MEMB      43              0.0000000000
      3899        43  POPC      C316          -38.6617570531       12.1297685373        0.2134437667  MEMB      43              0.0000000000
      3900        43  POPC      H16X          -38.9342278141       11.0558291063        0.2955090043  MEMB      43              0.0000000000
      3901        43  POPC      H16Y          -37.6152994597       12.2125454346       -0.1504176174  MEMB      43              0.0000000000
      3902        43  POPC      H16Z          -39.3807037916       12.6221288104       -0.4757710098  MEMB      43              0.0000000000
      3903        44  POPC      N              34.6286299137       16.4158268057       19.3635241497  MEMB      44              0.0000000000
      3904        44  POPC      C12            34.4171058323       15.4792616217       18.2002120231  MEMB      44              0.0000000000
      3905        44  POPC      H12A           35.3774371336       15.1273258128       17.8533619595  MEMB      44              0.0000000000
      3906        44  POPC      H12B           33.9568593937       16.1774603085       17.5167708889  MEMB      44              0.0000000000
      3907        44  POPC      C13            35.7194629903       17.4332316101       19.0123496554  MEMB      44              0.0000000000
      3908        44  POPC      H13A           36.6501866714       17.0885639466       18.5864888588  MEMB      44              0.0000000000
      3909        44  POPC      H13B           35.2999431652       18.0784602539       18.2546669357  MEMB      44              0.0000000000
      3910        44  POPC      H13C           35.9553959739       18.0259555080       19.8837930906  MEMB      44              0.0000000000
      3911        44  POPC      C14            33.3648715091       17.1686802317       19.6073974266  MEMB      44              0.0000000000
      3912        44  POPC      H14A           33.5753956038       17.8212383907       20.4418118895  MEMB      44              0.0000000000
      3913        44  POPC      H14B           32.8775188311       17.6182505511       18.7548870396  MEMB      44              0.0000000000
      3914        44  POPC      H14C           32.5936941772       16.5047736750       19.9692173356  MEMB      44              0.0000000000
      3915        44  POPC      C15            35.0401444395       15.5777187708       20.4861374372  MEMB      44              0.0000000000
      3916        44  POPC      H15A           35.6674991750       14.8018986201       20.0727015803  MEMB      44              0.0000000000
      3917        44  POPC      H15B           34.1551619038       15.0781023354       20.8516361083  MEMB      44              0.0000000000
      3918        44  POPC      H15C           35.4597393551       16.1169168093       21.3225619373  MEMB      44              0.0000000000
      3919        44  POPC      C11            33.4731503633       14.2623338754       18.4882116346  MEMB      44              0.0000000000
      3920        44  POPC      H11A           33.8936670194       13.5480626623       19.2280111578  MEMB      44              0.0000000000
      3921        44  POPC      H11B           33.4834055007       13.7007566205       17.5296466859  MEMB      44              0.0000000000
      3922        44  POPC      P              30.9244702138       13.5955358264       18.8054071946  MEMB      44              0.0000000000
      3923        44  POPC      O13            29.9395480365       13.9709803543       19.8582408066  MEMB      44              0.0000000000
      3924        44  POPC      O14            31.3509438750       12.1652375481       18.9033249465  MEMB      44              0.0000000000
      3925        44  POPC      O12            32.1537840103       14.5983410611       18.8861509842  MEMB      44              0.0000000000
      3926        44  POPC      O11            30.3833628191       13.8306538970       17.3890437454  MEMB      44              0.0000000000
      3927        44  POPC      C1             29.6233317792       14.9846741483       16.9936882227  MEMB      44              0.0000000000
      3928        44  POPC      HA             29.3460183687       15.7002141268       17.7970691779  MEMB      44              0.0000000000
      3929        44  POPC      HB             28.6193290846       14.5507635867       16.7986984339  MEMB      44              0.0000000000
      3930        44  POPC      C2             30.1536946451       15.6212149846       15.6971438526  MEMB      44              0.0000000000
      3931        44  POPC      HS             29.2899939511       16.2916995950       15.5001856156  MEMB      44              0.0000000000
      3932        44  POPC      O21            30.4243051784       14.6366599112       14.8076823091  MEMB      44              0.0000000000
      3933        44  POPC      C21            29.3081461761       14.2050147333       14.0548178955  MEMB      44              0.0000000000
      3934        44  POPC      O22            28.2353171146       14.6496784240       14.0032644026  MEMB      44              0.0000000000
      3935        44  POPC      C22            29.6222964989       13.0319497239       13.0812836603  MEMB      44              0.0000000000
      3936        44  POPC      H2R            30.6500390411       13.1765453873       12.6848517738  MEMB      44              0.0000000000
      3937        44  POPC      H2S            28.7781287046       13.0314681599       12.3589943250  MEMB      44              0.0000000000
      3938        44  POPC      C3             31.3581428818       16.4862464877       16.0613653389  MEMB      44              0.0000000000
      3939        44  POPC      HX             32.0865830502       15.8254219509       16.5780922885  MEMB      44              0.0000000000
      3940        44  POPC      HY             31.0657563435       17.2594827432       16.8036163910  MEMB      44              0.0000000000
      3941        44  POPC      O31            31.7801149063       17.1870571193       14.8686761218  MEMB      44              0.0000000000
      3942        44  POPC      C31            32.7568842973       16.7215579986       14.2167416336  MEMB      44              0.0000000000
      3943        44  POPC      O32            33.3939329495       15.7128141035       14.5478346951  MEMB      44              0.0000000000
      3944        44  POPC      C32            32.9727267906       17.5345012168       12.9328093943  MEMB      44              0.0000000000
      3945        44  POPC      H2X            33.9458666566       18.0701152277       12.9537227321  MEMB      44              0.0000000000
      3946        44  POPC      H2Y            32.2421085011       18.3697219522       12.8787360378  MEMB      44              0.0000000000
      3947        44  POPC      C23            29.5854251206       11.6846934371       13.7523000023  MEMB      44              0.0000000000
      3948        44  POPC      H3R            28.6230768880       11.6635781353       14.3070624483  MEMB      44              0.0000000000
      3949        44  POPC      H3S            30.4619858130       11.6915123194       14.4348805197  MEMB      44              0.0000000000
      3950        44  POPC      C24            29.6948163703       10.4404223996       12.8026292715  MEMB      44              0.0000000000
      3951        44  POPC      H4R            28.8646102076       10.5390408110       12.0709511232  MEMB      44              0.0000000000
      3952        44  POPC      H4S            29.4972385834        9.4765543644       13.3186165333  MEMB      44              0.0000000000
      3953        44  POPC      C25            30.9597104211       10.5219934142       11.9513730926  MEMB      44              0.0000000000
      3954        44  POPC      H5R            31.0000215666       11.5014564064       11.4285454857  MEMB      44              0.0000000000
      3955        44  POPC      H5S            30.7643297065        9.7316131532       11.1954318122  MEMB      44              0.0000000000
      3956        44  POPC      C26            32.2072141953       10.1294141195       12.7169662316  MEMB      44              0.0000000000
      3957        44  POPC      H6R            32.0779920627        9.2013200274       13.3138450325  MEMB      44              0.0000000000
      3958        44  POPC      H6S            32.4676839694       10.9037598945       13.4698708449  MEMB      44              0.0000000000
      3959        44  POPC      C27            33.4394241356        9.9243705803       11.7610636648  MEMB      44              0.0000000000
      3960        44  POPC      H7R            33.4569581530        8.8510350002       11.4747700241  MEMB      44              0.0000000000
      3961        44  POPC      H7S            34.4083251994       10.0533030209       12.2891996216  MEMB      44              0.0000000000
      3962        44  POPC      C28            33.4309996971       10.7046227081       10.3934251687  MEMB      44              0.0000000000
      3963        44  POPC      H8R            32.4930325270       10.3721940038        9.8994313892  MEMB      44              0.0000000000
      3964        44  POPC      H8S            34.3510820626       10.3428550550        9.8865779142  MEMB      44              0.0000000000
      3965        44  POPC      C29            33.6073941449       12.2293419563       10.6480351207  MEMB      44              0.0000000000
      3966        44  POPC      H91            33.0725012098       12.6976012896       11.4874537208  MEMB      44              0.0000000000
      3967        44  POPC      C210           34.3621247379       13.0525666754        9.8610936065  MEMB      44              0.0000000000
      3968        44  POPC      H101           34.3608721523       14.1486989685        9.9532488127  MEMB      44              0.0000000000
      3969        44  POPC      C211           35.2209982393       12.7735193985        8.6808627294  MEMB      44              0.0000000000
      3970        44  POPC      H11R           35.5795275547       11.7249442637        8.6016954115  MEMB      44              0.0000000000
      3971        44  POPC      H11S           36.1304132310       13.4088556350        8.6205850984  MEMB      44              0.0000000000
      3972        44  POPC      C212           34.6169629721       12.9334943127        7.2707659066  MEMB      44              0.0000000000
      3973        44  POPC      H12R           34.2502325093       13.9719634726        7.1244402070  MEMB      44              0.0000000000
      3974        44  POPC      H12S           33.7673136948       12.2182441388        7.2418831661  MEMB      44              0.0000000000
      3975        44  POPC      C213           35.6049908087       12.4268986394        6.1839569052  MEMB      44              0.0000000000
      3976        44  POPC      H13R           35.3756154155       11.3402068178        6.2123969903  MEMB      44              0.0000000000
      3977        44  POPC      H13S           36.6036449384       12.6713957851        6.6049462329  MEMB      44              0.0000000000
      3978        44  POPC      C214           35.3685225513       13.0145273754        4.8601205475  MEMB      44              0.0000000000
      3979        44  POPC      H14R           34.3781643324       12.6132488088        4.5560029727  MEMB      44              0.0000000000
      3980        44  POPC      H14S           36.0383761580       12.4963067295        4.1410479667  MEMB      44              0.0000000000
      3981        44  POPC      C215           35.5495791250       14.5981259431        4.7034907884  MEMB      44              0.0000000000
      3982        44  POPC      H15R           36.6000997851       14.9569393820        4.7479931258  MEMB      44              0.0000000000
      3983        44  POPC      H15S           34.9946758578       15.0392185224        5.5589679823  MEMB      44              0.0000000000
      3984        44  POPC      C216           34.7121868413       15.1653167879        3.5947407444  MEMB      44              0.0000000000
      3985        44  POPC      H16R           33.6849075973       14.8349382998        3.8590664264  MEMB      44              0.0000000000
      3986        44  POPC      H16S           35.0401529930       14.7638658841        2.6120931784  MEMB      44              0.0000000000
      3987        44  POPC      C217           34.6763931038       16.6593154294        3.5321720437  MEMB      44              0.0000000000
      3988        44  POPC      H17R           35.7375859761       16.9857077200        3.4914433392  MEMB      44              0.0000000000
      3989        44  POPC      H17S           34.1639957844       16.9939572754        4.4594182976  MEMB      44              0.0000000000
      3990        44  POPC      C218           33.8415662176       17.0997268007        2.3445397608  MEMB      44              0.0000000000
      3991        44  POPC      H18R           33.8121930093       18.2069199488        2.2574678369  MEMB      44              0.0000000000
      3992        44  POPC      H18S           32.8019126280       16.7091835564        2.3748254145  MEMB      44              0.0000000000
      3993        44  POPC      H18T           34.1952803309       16.5470586661        1.4480097461  MEMB      44              0.0000000000
      3994        44  POPC      C33            32.7160395035       16.6019921102       11.7026132883  MEMB      44              0.0000000000
      3995        44  POPC      H3X            33.2617724789       15.6355228499       11.7519460198  MEMB      44              0.0000000000
      3996        44  POPC      H3Y            33.0701326525       17.0536126240       10.7513097135  MEMB      44              0.0000000000
      3997        44  POPC      C34            31.2143328638       16.4125612397       11.5071931846  MEMB      44              0.0000000000
      3998        44  POPC      H4X            30.8301872291       17.4546926575       11.5339403675  MEMB      44              0.0000000000
      3999        44  POPC      H4Y            30.7073744105       15.8956217928       12.3498600048  MEMB      44              0.0000000000
      4000        44  POPC      C35            30.6844492448       15.5835849819       10.3107392167  MEMB      44              0.0000000000
      4001        44  POPC      H5X            29.5770042334       15.5390974343       10.2338777907  MEMB      44              0.0000000000
      4002        44  POPC      H5Y            31.0444957258       14.5367178599       10.4043156557  MEMB      44              0.0000000000
      4003        44  POPC      C36            31.2653730289       16.1382224345        9.0088478278  MEMB      44              0.0000000000
      4004        44  POPC      H6X            32.3174689168       15.7976472232        8.9019662096  MEMB      44              0.0000000000
      4005        44  POPC      H6Y            31.2644309576       17.2485205808        9.0483220490  MEMB      44              0.0000000000
      4006        44  POPC      C37            30.5483454615       15.4829382432        7.7862111741  MEMB      44              0.0000000000
      4007        44  POPC      H7X            29.5611988533       15.9926425289        7.7942122596  MEMB      44              0.0000000000
      4008        44  POPC      H7Y            30.5421947237       14.4082779853        8.0679712839  MEMB      44              0.0000000000
      4009        44  POPC      C38            31.2409310602       15.7018417765        6.3969401751  MEMB      44              0.0000000000
      4010        44  POPC      H8X            32.3341802772       15.5649247998        6.5397018183  MEMB      44              0.0000000000
      4011        44  POPC      H8Y            31.0055590001       16.7623166609        6.1638858230  MEMB      44              0.0000000000
      4012        44  POPC      C39            30.6453558607       14.8362273944        5.2498891358  MEMB      44              0.0000000000
      4013        44  POPC      H9X            31.0948191920       13.8208944621        5.2124334386  MEMB      44              0.0000000000
      4014        44  POPC      H9Y            30.9243065836       15.3292847362        4.2941678281  MEMB      44              0.0000000000
      4015        44  POPC      C310           29.1145428554       14.7514398706        5.3030728181  MEMB      44              0.0000000000
      4016        44  POPC      H10X           28.7230688216       15.7814562585        5.4449725922  MEMB      44              0.0000000000
      4017        44  POPC      H10Y           28.9263160535       14.1667353265        6.2288224054  MEMB      44              0.0000000000
      4018        44  POPC      C311           28.5078028612       14.0566170940        4.0767562479  MEMB      44              0.0000000000
      4019        44  POPC      H11X           27.4580851451       13.8199442505        4.3531615357  MEMB      44              0.0000000000
      4020        44  POPC      H11Y           29.0611978682       13.0985146626        3.9761843610  MEMB      44              0.0000000000
      4021        44  POPC      C312           28.4105221308       15.0234187559        2.8216453159  MEMB      44              0.0000000000
      4022        44  POPC      H12X           28.4184949652       16.0639839806        3.2108510434  MEMB      44              0.0000000000
      4023        44  POPC      H12Y           27.4877518222       14.7171122860        2.2840643589  MEMB      44              0.0000000000
      4024        44  POPC      C313           29.5096977637       14.8147362139        1.7901387317  MEMB      44              0.0000000000
      4025        44  POPC      H13X           29.6258714216       13.7127995093        1.7091449401  MEMB      44              0.0000000000
      4026        44  POPC      H13Y           30.5223864416       15.0904765146        2.1544869707  MEMB      44              0.0000000000
      4027        44  POPC      C314           29.1224240206       15.6948267245        0.5147798479  MEMB      44              0.0000000000
      4028        44  POPC      H14X           28.9244539813       16.7597045613        0.7620932025  MEMB      44              0.0000000000
      4029        44  POPC      H14Y           28.2878997664       15.2093581506       -0.0349566393  MEMB      44              0.0000000000
      4030        44  POPC      C315           30.2373135570       15.7621696162       -0.5221826961  MEMB      44              0.0000000000
      4031        44  POPC      H15X           31.1818966585       15.4435747070       -0.0316922721  MEMB      44              0.0000000000
      4032        44  POPC      H15Y           30.4314241712       16.7956316408       -0.8807876616  MEMB      44              0.0000000000
      4033        44  POPC      C316           29.9848423789       14.9245375759       -1.8584468451  MEMB      44              0.0000000000
      4034        44  POPC      H16X           30.8197598885       15.2912211912       -2.4930929761  MEMB      44              0.0000000000
      4035        44  POPC      H16Y           28.9296554668       15.1810611152       -2.0931761916  MEMB      44              0.0000000000
      4036        44  POPC      H16Z           30.1611108197       13.8366812150       -1.7176670590  MEMB      44              0.0000000000
      4037        45  POPC      N             -21.8882218730       27.6770085541       17.7560002905  MEMB      45              0.0000000000
      4038        45  POPC      C12           -22.9378617978       28.1516322619       18.7617898213  MEMB      45              0.0000000000
      4039        45  POPC      H12A          -23.8320920510       28.5568406790       18.3117250554  MEMB      45              0.0000000000
      4040        45  POPC      H12B          -22.4276240566       28.9385412929       19.2973564423  MEMB      45              0.0000000000
      4041        45  POPC      C13           -22.5382595437       26.5031450992       16.9615216007  MEMB      45              0.0000000000
      4042        45  POPC      H13A          -23.2757794606       26.9921940471       16.3424127630  MEMB      45              0.0000000000
      4043        45  POPC      H13B          -21.7187889595       26.0359701599       16.4355788831  MEMB      45              0.0000000000
      4044        45  POPC      H13C          -22.9264856811       25.8822361441       17.7553430051  MEMB      45              0.0000000000
      4045        45  POPC      C14           -21.5320461200       28.7732505886       16.7778880733  MEMB      45              0.0000000000
      4046        45  POPC      H14A          -21.1097603687       28.3111258303       15.8978226304  MEMB      45              0.0000000000
      4047        45  POPC      H14B          -22.4801985514       29.1217614681       16.3958578263  MEMB      45              0.0000000000
      4048        45  POPC      H14C          -20.9224079031       29.4908925963       17.3067845404  MEMB      45              0.0000000000
      4049        45  POPC      C15           -20.7534764283       27.2197701637       18.5940764408  MEMB      45              0.0000000000
      4050        45  POPC      H15A          -21.1302322645       26.5810114796       19.3792149243  MEMB      45              0.0000000000
      4051        45  POPC      H15B          -20.2827361470       28.0603420452       19.0821770700  MEMB      45              0.0000000000
      4052        45  POPC      H15C          -19.9878131777       26.7371623002       18.0047977731  MEMB      45              0.0000000000
      4053        45  POPC      C11           -23.4284280616       27.1778089861       19.8821833429  MEMB      45              0.0000000000
      4054        45  POPC      H11A          -24.2876895479       27.6423070810       20.4115528326  MEMB      45              0.0000000000
      4055        45  POPC      H11B          -22.5625366741       27.1386814236       20.5771812939  MEMB      45              0.0000000000
      4056        45  POPC      P             -23.2119147705       24.5534831263       20.1050109457  MEMB      45              0.0000000000
      4057        45  POPC      O13           -23.4303083098       24.5075587268       21.5462830708  MEMB      45              0.0000000000
      4058        45  POPC      O14           -21.7509757981       24.5004316923       19.6624914447  MEMB      45              0.0000000000
      4059        45  POPC      O12           -23.8346821753       25.8637712073       19.5034225976  MEMB      45              0.0000000000
      4060        45  POPC      O11           -24.0761528400       23.3641887493       19.4493323498  MEMB      45              0.0000000000
      4061        45  POPC      C1            -25.4946078452       23.5155671849       19.2159525564  MEMB      45              0.0000000000
      4062        45  POPC      HA            -25.9024035689       24.5139417434       19.4829206552  MEMB      45              0.0000000000
      4063        45  POPC      HB            -26.0728403092       22.8114482814       19.8517080403  MEMB      45              0.0000000000
      4064        45  POPC      C2            -25.9327019258       23.2102321080       17.7192213278  MEMB      45              0.0000000000
      4065        45  POPC      HS            -26.7775757439       22.4895043962       17.7517913063  MEMB      45              0.0000000000
      4066        45  POPC      O21           -24.9240483087       22.7804991440       16.8095363792  MEMB      45              0.0000000000
      4067        45  POPC      C21           -24.5177009543       21.5217457256       17.0752416873  MEMB      45              0.0000000000
      4068        45  POPC      O22           -24.8483107896       20.8425031328       18.0311720552  MEMB      45              0.0000000000
      4069        45  POPC      C22           -23.2794456947       21.2712583466       16.1502580424  MEMB      45              0.0000000000
      4070        45  POPC      H2R           -22.5148146855       20.6795107099       16.6975196219  MEMB      45              0.0000000000
      4071        45  POPC      H2S           -22.8712355528       22.2889293821       15.9712859450  MEMB      45              0.0000000000
      4072        45  POPC      C3            -26.5241490763       24.5254538239       17.1861584792  MEMB      45              0.0000000000
      4073        45  POPC      HX            -25.8983562959       25.3750441733       17.5338659434  MEMB      45              0.0000000000
      4074        45  POPC      HY            -27.5680542996       24.5589888114       17.5649172674  MEMB      45              0.0000000000
      4075        45  POPC      O31           -26.6011784916       24.4913807776       15.7200062318  MEMB      45              0.0000000000
      4076        45  POPC      C31           -27.0571906753       25.5541270917       15.1499069483  MEMB      45              0.0000000000
      4077        45  POPC      O32           -27.6663160304       26.4580675830       15.6483392939  MEMB      45              0.0000000000
      4078        45  POPC      C32           -26.5862924622       25.4349714242       13.7291793925  MEMB      45              0.0000000000
      4079        45  POPC      H2X           -27.4954624222       25.0748292492       13.2018949081  MEMB      45              0.0000000000
      4080        45  POPC      H2Y           -25.7566275284       24.7122958978       13.5751757508  MEMB      45              0.0000000000
      4081        45  POPC      C23           -23.5317295571       20.5128199811       14.8285871764  MEMB      45              0.0000000000
      4082        45  POPC      H3R           -24.5657868123       20.7215382163       14.4800425021  MEMB      45              0.0000000000
      4083        45  POPC      H3S           -23.4858521608       19.4036435908       14.7844906731  MEMB      45              0.0000000000
      4084        45  POPC      C24           -22.5823208364       20.9295058656       13.7063440587  MEMB      45              0.0000000000
      4085        45  POPC      H4R           -21.5526306573       20.8321775370       14.1120364828  MEMB      45              0.0000000000
      4086        45  POPC      H4S           -22.6033151096       22.0227903614       13.5098517490  MEMB      45              0.0000000000
      4087        45  POPC      C25           -22.6569895706       20.0691597371       12.3771392685  MEMB      45              0.0000000000
      4088        45  POPC      H5R           -22.3925746624       19.0041792207       12.5509843367  MEMB      45              0.0000000000
      4089        45  POPC      H5S           -21.8630582727       20.3941099574       11.6711634514  MEMB      45              0.0000000000
      4090        45  POPC      C26           -24.0657879979       20.1854523793       11.7663141043  MEMB      45              0.0000000000
      4091        45  POPC      H6R           -24.6867813652       19.8939827778       12.6402332799  MEMB      45              0.0000000000
      4092        45  POPC      H6S           -24.3435717256       19.5098751534       10.9292046384  MEMB      45              0.0000000000
      4093        45  POPC      C27           -24.4993222464       21.5610473145       11.1585594429  MEMB      45              0.0000000000
      4094        45  POPC      H7R           -24.4328961133       22.3291253038       11.9585371750  MEMB      45              0.0000000000
      4095        45  POPC      H7S           -25.5375740798       21.4953369672       10.7686410451  MEMB      45              0.0000000000
      4096        45  POPC      C28           -23.6364062281       22.0533721525        9.9943702567  MEMB      45              0.0000000000
      4097        45  POPC      H8R           -22.5795485588       22.1404995176       10.3257027548  MEMB      45              0.0000000000
      4098        45  POPC      H8S           -24.0050462406       23.1010970992        9.9679507393  MEMB      45              0.0000000000
      4099        45  POPC      C29           -23.9182230085       21.3890531673        8.7127366702  MEMB      45              0.0000000000
      4100        45  POPC      H91           -23.2496359494       20.5215784606        8.6103687933  MEMB      45              0.0000000000
      4101        45  POPC      C210          -24.7826025262       21.6223580476        7.7340223309  MEMB      45              0.0000000000
      4102        45  POPC      H101          -24.7315773216       21.0061681249        6.8242385498  MEMB      45              0.0000000000
      4103        45  POPC      C211          -25.8208803299       22.7373656409        7.6553020175  MEMB      45              0.0000000000
      4104        45  POPC      H11R          -26.2418652802       23.0120629238        8.6460765992  MEMB      45              0.0000000000
      4105        45  POPC      H11S          -26.7362000069       22.4010423678        7.1229513693  MEMB      45              0.0000000000
      4106        45  POPC      C212          -25.3797773394       24.0866200677        7.1043227024  MEMB      45              0.0000000000
      4107        45  POPC      H12R          -24.8458008139       24.6511040992        7.8983928967  MEMB      45              0.0000000000
      4108        45  POPC      H12S          -26.3127808632       24.6517058178        6.8933637050  MEMB      45              0.0000000000
      4109        45  POPC      C213          -24.6221234495       24.0819797764        5.7836140648  MEMB      45              0.0000000000
      4110        45  POPC      H13R          -24.6185193990       23.1206041809        5.2267795030  MEMB      45              0.0000000000
      4111        45  POPC      H13S          -23.5284528409       24.0194650411        5.9688102528  MEMB      45              0.0000000000
      4112        45  POPC      C214          -24.9727318035       25.2575382528        4.8275712237  MEMB      45              0.0000000000
      4113        45  POPC      H14R          -24.3184729687       25.3312866531        3.9326814796  MEMB      45              0.0000000000
      4114        45  POPC      H14S          -25.0861950242       26.2703138983        5.2699874348  MEMB      45              0.0000000000
      4115        45  POPC      C215          -26.3735173603       25.0917997976        4.1897520843  MEMB      45              0.0000000000
      4116        45  POPC      H15R          -26.9146573520       26.0613535239        4.2278851122  MEMB      45              0.0000000000
      4117        45  POPC      H15S          -26.8434288131       24.3231499820        4.8398919012  MEMB      45              0.0000000000
      4118        45  POPC      C216          -26.3714345418       24.5557271625        2.7944253846  MEMB      45              0.0000000000
      4119        45  POPC      H16R          -25.5986604744       25.0012752026        2.1321357309  MEMB      45              0.0000000000
      4120        45  POPC      H16S          -27.4030629839       24.7636238703        2.4382751724  MEMB      45              0.0000000000
      4121        45  POPC      C217          -26.0507245634       22.9952426344        2.6407937052  MEMB      45              0.0000000000
      4122        45  POPC      H17R          -25.1214356284       22.6465957135        3.1399806308  MEMB      45              0.0000000000
      4123        45  POPC      H17S          -25.8328008522       22.7188651396        1.5870169938  MEMB      45              0.0000000000
      4124        45  POPC      C218          -27.2166718412       22.1929385776        3.0900278003  MEMB      45              0.0000000000
      4125        45  POPC      H18R          -27.1143448701       21.1150650331        2.8409519173  MEMB      45              0.0000000000
      4126        45  POPC      H18S          -28.1956391671       22.3841294008        2.6007531717  MEMB      45              0.0000000000
      4127        45  POPC      H18T          -27.2876156380       22.3600714503        4.1860909782  MEMB      45              0.0000000000
      4128        45  POPC      C33           -26.1528759365       26.7564397494       13.1763290665  MEMB      45              0.0000000000
      4129        45  POPC      H3X           -25.2307390506       27.0805177999       13.7044937589  MEMB      45              0.0000000000
      4130        45  POPC      H3Y           -26.9350066847       27.5174880373       13.3846503399  MEMB      45              0.0000000000
      4131        45  POPC      C34           -25.9284187595       26.7766106772       11.6281728680  MEMB      45              0.0000000000
      4132        45  POPC      H4X           -25.5611313989       27.7911877931       11.3634953096  MEMB      45              0.0000000000
      4133        45  POPC      H4Y           -26.9023020220       26.8389067598       11.0971437113  MEMB      45              0.0000000000
      4134        45  POPC      C35           -25.0302521642       25.6355322125       11.0501108179  MEMB      45              0.0000000000
      4135        45  POPC      H5X           -25.1828269754       25.7153310104        9.9525336855  MEMB      45              0.0000000000
      4136        45  POPC      H5Y           -25.3127843559       24.6563879801       11.4925732608  MEMB      45              0.0000000000
      4137        45  POPC      C36           -23.5650062121       25.8850945136       11.4205806836  MEMB      45              0.0000000000
      4138        45  POPC      H6X           -23.2356794717       25.3761886440       12.3516444910  MEMB      45              0.0000000000
      4139        45  POPC      H6Y           -23.5008461749       26.9687324282       11.6570836866  MEMB      45              0.0000000000
      4140        45  POPC      C37           -22.3873247855       25.6030389666       10.4509987209  MEMB      45              0.0000000000
      4141        45  POPC      H7X           -22.4794408451       24.5433632675       10.1301830417  MEMB      45              0.0000000000
      4142        45  POPC      H7Y           -21.4916303229       25.6518044605       11.1064944152  MEMB      45              0.0000000000
      4143        45  POPC      C38           -22.3728949862       26.4025283936        9.1859434759  MEMB      45              0.0000000000
      4144        45  POPC      H8X           -22.1664691208       27.4460357493        9.5065713627  MEMB      45              0.0000000000
      4145        45  POPC      H8Y           -23.3428581595       26.3933619967        8.6442718247  MEMB      45              0.0000000000
      4146        45  POPC      C39           -21.2885324128       25.8927575883        8.2635463490  MEMB      45              0.0000000000
      4147        45  POPC      H9X           -21.5321269823       24.8890100679        7.8543113582  MEMB      45              0.0000000000
      4148        45  POPC      H9Y           -20.3696001135       25.7808234972        8.8778392704  MEMB      45              0.0000000000
      4149        45  POPC      C310          -20.8605265821       26.8310140219        7.1157699253  MEMB      45              0.0000000000
      4150        45  POPC      H10X          -19.8587595998       26.4441992484        6.8308868480  MEMB      45              0.0000000000
      4151        45  POPC      H10Y          -20.6832483508       27.8041949177        7.6215493279  MEMB      45              0.0000000000
      4152        45  POPC      C311          -21.8111756154       27.0344275938        5.9940564565  MEMB      45              0.0000000000
      4153        45  POPC      H11X          -22.8272145233       27.2378089927        6.3948325281  MEMB      45              0.0000000000
      4154        45  POPC      H11Y          -21.9345393025       26.1037848567        5.3999125986  MEMB      45              0.0000000000
      4155        45  POPC      C312          -21.4111105172       28.2244264327        5.0705529722  MEMB      45              0.0000000000
      4156        45  POPC      H12X          -20.5838062451       27.9922482549        4.3662922866  MEMB      45              0.0000000000
      4157        45  POPC      H12Y          -21.1050046780       29.1219295220        5.6494379698  MEMB      45              0.0000000000
      4158        45  POPC      C313          -22.6728937460       28.5882308399        4.2107645899  MEMB      45              0.0000000000
      4159        45  POPC      H13X          -22.9929872833       29.6449471783        4.3340978482  MEMB      45              0.0000000000
      4160        45  POPC      H13Y          -23.5252769830       27.9900702019        4.5980206739  MEMB      45              0.0000000000
      4161        45  POPC      C314          -22.4430737511       28.3158053379        2.7304158830  MEMB      45              0.0000000000
      4162        45  POPC      H14X          -21.8298639805       27.3949973264        2.6283998335  MEMB      45              0.0000000000
      4163        45  POPC      H14Y          -21.8053124666       29.1972178127        2.5052623083  MEMB      45              0.0000000000
      4164        45  POPC      C315          -23.7578519819       28.2423880792        2.0133356852  MEMB      45              0.0000000000
      4165        45  POPC      H15X          -24.4250685280       29.1177152825        2.1648123363  MEMB      45              0.0000000000
      4166        45  POPC      H15Y          -24.4606123799       27.4972446508        2.4436955615  MEMB      45              0.0000000000
      4167        45  POPC      C316          -23.7219203423       28.0542505332        0.5004837886  MEMB      45              0.0000000000
      4168        45  POPC      H16X          -23.1067837160       27.1511320286        0.2997239963  MEMB      45              0.0000000000
      4169        45  POPC      H16Y          -23.1319476245       28.8328400641       -0.0287139230  MEMB      45              0.0000000000
      4170        45  POPC      H16Z          -24.7417108909       28.0608380292        0.0596845175  MEMB      45              0.0000000000
      4171        46  POPC      N              40.2396990181      -14.8325692413       20.4859250698  MEMB      46              0.0000000000
      4172        46  POPC      C12            39.6558785293      -15.9442084350       19.7056539291  MEMB      46              0.0000000000
      4173        46  POPC      H12A           39.4929993948      -16.8381950907       20.2893133222  MEMB      46              0.0000000000
      4174        46  POPC      H12B           40.3574115191      -16.2720173208       18.9527975253  MEMB      46              0.0000000000
      4175        46  POPC      C13            40.4172940855      -13.6495733488       19.6058909050  MEMB      46              0.0000000000
      4176        46  POPC      H13A           41.1558054394      -13.9564864217       18.8800772400  MEMB      46              0.0000000000
      4177        46  POPC      H13B           39.4682110807      -13.4728774060       19.1217215989  MEMB      46              0.0000000000
      4178        46  POPC      H13C           40.8567349305      -12.7775446138       20.0672559409  MEMB      46              0.0000000000
      4179        46  POPC      C14            39.3427733879      -14.4683744107       21.6449362087  MEMB      46              0.0000000000
      4180        46  POPC      H14A           39.8246785245      -13.6654815430       22.1830165000  MEMB      46              0.0000000000
      4181        46  POPC      H14B           38.3886000172      -14.1744481804       21.2331590569  MEMB      46              0.0000000000
      4182        46  POPC      H14C           39.3528227150      -15.3602673917       22.2538911248  MEMB      46              0.0000000000
      4183        46  POPC      C15            41.5568567740      -15.3596178452       21.0923548767  MEMB      46              0.0000000000
      4184        46  POPC      H15A           41.9815548523      -14.6052017665       21.7380233864  MEMB      46              0.0000000000
      4185        46  POPC      H15B           42.2170615786      -15.6065177641       20.2740823770  MEMB      46              0.0000000000
      4186        46  POPC      H15C           41.3846407730      -16.2261650662       21.7135130318  MEMB      46              0.0000000000
      4187        46  POPC      C11            38.2416076634      -15.8461695834       19.0755096084  MEMB      46              0.0000000000
      4188        46  POPC      H11A           37.4051959394      -15.6833657699       19.7884130343  MEMB      46              0.0000000000
      4189        46  POPC      H11B           37.9639468136      -16.8077905632       18.5933160121  MEMB      46              0.0000000000
      4190        46  POPC      P              36.7751788802      -14.5698751963       17.4940282803  MEMB      46              0.0000000000
      4191        46  POPC      O13            35.8217101111      -14.0522619815       18.5287229054  MEMB      46              0.0000000000
      4192        46  POPC      O14            36.4111373030      -15.7899228020       16.8367111364  MEMB      46              0.0000000000
      4193        46  POPC      O12            38.2047491980      -14.8532860695       18.1197861307  MEMB      46              0.0000000000
      4194        46  POPC      O11            36.9768685511      -13.4219112904       16.4104809534  MEMB      46              0.0000000000
      4195        46  POPC      C1             38.0016870369      -12.4313398212       16.5756454569  MEMB      46              0.0000000000
      4196        46  POPC      HA             38.5957454496      -12.6522966154       17.4881113064  MEMB      46              0.0000000000
      4197        46  POPC      HB             37.5853601029      -11.4016200283       16.6015253545  MEMB      46              0.0000000000
      4198        46  POPC      C2             38.9165372059      -12.4088578785       15.3664863469  MEMB      46              0.0000000000
      4199        46  POPC      HS             39.6421008205      -11.5813499309       15.5185032476  MEMB      46              0.0000000000
      4200        46  POPC      O21            38.1895401477      -12.1685084917       14.1880405528  MEMB      46              0.0000000000
      4201        46  POPC      C21            38.8819198057      -11.8511458396       13.0666884661  MEMB      46              0.0000000000
      4202        46  POPC      O22            40.0796108815      -11.7966369352       12.9546954054  MEMB      46              0.0000000000
      4203        46  POPC      C22            37.9439806231      -11.5859290912       11.9279805396  MEMB      46              0.0000000000
      4204        46  POPC      H2R            37.6672707775      -10.5107472698       11.8863116579  MEMB      46              0.0000000000
      4205        46  POPC      H2S            37.1275396688      -12.3260942289       11.7869102811  MEMB      46              0.0000000000
      4206        46  POPC      C3             39.6077813042      -13.7783386743       15.2573232568  MEMB      46              0.0000000000
      4207        46  POPC      HX             39.9205347220      -14.2866154681       16.1944257161  MEMB      46              0.0000000000
      4208        46  POPC      HY             40.5618250715      -13.5712988371       14.7269874255  MEMB      46              0.0000000000
      4209        46  POPC      O31            38.7698615457      -14.7007258783       14.4600057567  MEMB      46              0.0000000000
      4210        46  POPC      C31            39.2795290423      -15.9217643031       14.1839807098  MEMB      46              0.0000000000
      4211        46  POPC      O32            40.3925431935      -16.2520006012       14.5153839881  MEMB      46              0.0000000000
      4212        46  POPC      C32            38.3197032809      -16.8907371324       13.5104395820  MEMB      46              0.0000000000
      4213        46  POPC      H2X            37.9627633865      -17.6017953182       14.2858821072  MEMB      46              0.0000000000
      4214        46  POPC      H2Y            38.8454823491      -17.5105659751       12.7530164208  MEMB      46              0.0000000000
      4215        46  POPC      C23            38.7188040262      -11.5868121862       10.5729474162  MEMB      46              0.0000000000
      4216        46  POPC      H3R            39.6126445381      -10.9431166402       10.7179519413  MEMB      46              0.0000000000
      4217        46  POPC      H3S            38.0901684117      -11.0612576147        9.8226605429  MEMB      46              0.0000000000
      4218        46  POPC      C24            38.9498320801      -12.9715697766        9.9365690648  MEMB      46              0.0000000000
      4219        46  POPC      H4R            39.1254124121      -12.6569727801        8.8856068781  MEMB      46              0.0000000000
      4220        46  POPC      H4S            38.0535843852      -13.6193583011        9.8296515521  MEMB      46              0.0000000000
      4221        46  POPC      C25            40.1319034374      -13.7788292999       10.3985469900  MEMB      46              0.0000000000
      4222        46  POPC      H5R            39.8887472511      -14.2184910501       11.3894523473  MEMB      46              0.0000000000
      4223        46  POPC      H5S            41.0431071666      -13.1650525830       10.5637952086  MEMB      46              0.0000000000
      4224        46  POPC      C26            40.4665894559      -15.0116091723        9.5232860586  MEMB      46              0.0000000000
      4225        46  POPC      H6R            41.4528654664      -15.3640923338        9.8938748935  MEMB      46              0.0000000000
      4226        46  POPC      H6S            40.6562411278      -14.7678348066        8.4560813071  MEMB      46              0.0000000000
      4227        46  POPC      C27            39.4720087010      -16.1604399332        9.6694057002  MEMB      46              0.0000000000
      4228        46  POPC      H7R            38.3895481120      -15.9132988366        9.6304009080  MEMB      46              0.0000000000
      4229        46  POPC      H7S            39.6133537144      -16.5289274031       10.7079432384  MEMB      46              0.0000000000
      4230        46  POPC      C28            39.7933650034      -17.2826377982        8.6946919321  MEMB      46              0.0000000000
      4231        46  POPC      H8R            40.8516924689      -17.5166106976        8.9386604702  MEMB      46              0.0000000000
      4232        46  POPC      H8S            39.6871902961      -16.8985734385        7.6576083444  MEMB      46              0.0000000000
      4233        46  POPC      C29            38.9786916021      -18.5470815958        8.9395307301  MEMB      46              0.0000000000
      4234        46  POPC      H91            39.2868029563      -18.9771244537        9.9039638311  MEMB      46              0.0000000000
      4235        46  POPC      C210           38.0776214838      -19.1405468092        8.1849590858  MEMB      46              0.0000000000
      4236        46  POPC      H101           37.6357961296      -20.0984559001        8.4967289573  MEMB      46              0.0000000000
      4237        46  POPC      C211           37.5285909297      -18.8190545431        6.8175399118  MEMB      46              0.0000000000
      4238        46  POPC      H11R           37.8611294964      -17.8123598343        6.4854186654  MEMB      46              0.0000000000
      4239        46  POPC      H11S           36.4323534236      -18.9993529053        6.8087230081  MEMB      46              0.0000000000
      4240        46  POPC      C212           38.0214907909      -19.8113401442        5.8207344669  MEMB      46              0.0000000000
      4241        46  POPC      H12R           37.5421451766      -20.8094508956        5.9119711745  MEMB      46              0.0000000000
      4242        46  POPC      H12S           39.0889864717      -20.0511883185        6.0137292092  MEMB      46              0.0000000000
      4243        46  POPC      C213           37.8056485558      -19.3104814315        4.3625420064  MEMB      46              0.0000000000
      4244        46  POPC      H13R           36.9212156018      -18.6392002344        4.3240615340  MEMB      46              0.0000000000
      4245        46  POPC      H13S           37.5655385834      -20.1456648267        3.6703449298  MEMB      46              0.0000000000
      4246        46  POPC      C214           38.9933623399      -18.5669555375        3.6262850027  MEMB      46              0.0000000000
      4247        46  POPC      H14R           39.7191915866      -19.3252724587        3.2623507061  MEMB      46              0.0000000000
      4248        46  POPC      H14S           39.5546361721      -17.7910703538        4.1895745512  MEMB      46              0.0000000000
      4249        46  POPC      C215           38.5206080733      -17.8030144529        2.3428120811  MEMB      46              0.0000000000
      4250        46  POPC      H15R           37.8073373298      -18.4986291103        1.8511963515  MEMB      46              0.0000000000
      4251        46  POPC      H15S           39.4436819652      -17.5791964456        1.7664796863  MEMB      46              0.0000000000
      4252        46  POPC      C216           37.8449647318      -16.3938013637        2.5526795266  MEMB      46              0.0000000000
      4253        46  POPC      H16R           38.5522682921      -15.7137999231        3.0738717500  MEMB      46              0.0000000000
      4254        46  POPC      H16S           36.9869276901      -16.5894714733        3.2307708696  MEMB      46              0.0000000000
      4255        46  POPC      C217           37.4689895589      -15.7687172268        1.2866565162  MEMB      46              0.0000000000
      4256        46  POPC      H17R           38.3776181269      -15.6440821735        0.6596149075  MEMB      46              0.0000000000
      4257        46  POPC      H17S           37.0087645090      -14.7618266563        1.3798527740  MEMB      46              0.0000000000
      4258        46  POPC      C218           36.3274251335      -16.4656603719        0.5450649628  MEMB      46              0.0000000000
      4259        46  POPC      H18R           36.4691060743      -17.4588753732        0.0678099647  MEMB      46              0.0000000000
      4260        46  POPC      H18S           36.0499466997      -15.8445451382       -0.3333114758  MEMB      46              0.0000000000
      4261        46  POPC      H18T           35.5009287675      -16.5527501736        1.2823843183  MEMB      46              0.0000000000
      4262        46  POPC      C33            36.9992062696      -16.2364743015       12.9898583094  MEMB      46              0.0000000000
      4263        46  POPC      H3X            37.4213282698      -15.5348287531       12.2389736925  MEMB      46              0.0000000000
      4264        46  POPC      H3Y            36.4540570007      -15.8265323774       13.8668308981  MEMB      46              0.0000000000
      4265        46  POPC      C34            36.1838321935      -17.2838176204       12.2156502832  MEMB      46              0.0000000000
      4266        46  POPC      H4X            35.7196449740      -18.0187076052       12.9075950571  MEMB      46              0.0000000000
      4267        46  POPC      H4Y            36.9362478467      -17.8656147288       11.6414522107  MEMB      46              0.0000000000
      4268        46  POPC      C35            35.0979377329      -16.7311439113       11.2923354661  MEMB      46              0.0000000000
      4269        46  POPC      H5X            34.3896223183      -16.2242575157       11.9820280105  MEMB      46              0.0000000000
      4270        46  POPC      H5Y            34.5400956850      -17.5538621644       10.7960817451  MEMB      46              0.0000000000
      4271        46  POPC      C36            35.5797231121      -15.7405918411       10.2648135265  MEMB      46              0.0000000000
      4272        46  POPC      H6X            36.4194627152      -16.2236456152        9.7209227170  MEMB      46              0.0000000000
      4273        46  POPC      H6Y            35.9404644283      -14.8613095535       10.8401831516  MEMB      46              0.0000000000
      4274        46  POPC      C37            34.6258376142      -15.1711051517        9.2463724048  MEMB      46              0.0000000000
      4275        46  POPC      H7X            33.7321941727      -14.8431502348        9.8192313747  MEMB      46              0.0000000000
      4276        46  POPC      H7Y            34.2204813291      -15.9111715325        8.5236633673  MEMB      46              0.0000000000
      4277        46  POPC      C38            35.2279670442      -14.0623406407        8.3706919514  MEMB      46              0.0000000000
      4278        46  POPC      H8X            35.6040322031      -13.1397638633        8.8623708497  MEMB      46              0.0000000000
      4279        46  POPC      H8Y            34.3869106153      -13.6969403450        7.7434534399  MEMB      46              0.0000000000
      4280        46  POPC      C39            36.1848008065      -14.5005417074        7.2793626633  MEMB      46              0.0000000000
      4281        46  POPC      H9X            35.7843231443      -15.4348173108        6.8309572521  MEMB      46              0.0000000000
      4282        46  POPC      H9Y            37.1807613823      -14.7824604952        7.6829783543  MEMB      46              0.0000000000
      4283        46  POPC      C310           36.3977979134      -13.4258874073        6.1269453356  MEMB      46              0.0000000000
      4284        46  POPC      H10X           35.3631019030      -13.1642807271        5.8182582961  MEMB      46              0.0000000000
      4285        46  POPC      H10Y           36.8415593556      -13.8246572156        5.1897259542  MEMB      46              0.0000000000
      4286        46  POPC      C311           37.1710061912      -12.2106183425        6.6481903144  MEMB      46              0.0000000000
      4287        46  POPC      H11X           38.2493042333      -12.3722924295        6.8613941037  MEMB      46              0.0000000000
      4288        46  POPC      H11Y           36.7599774884      -12.0753140972        7.6714537594  MEMB      46              0.0000000000
      4289        46  POPC      C312           36.9103981994      -10.9550303340        5.8905867590  MEMB      46              0.0000000000
      4290        46  POPC      H12X           37.3530153392      -10.0997309224        6.4445483017  MEMB      46              0.0000000000
      4291        46  POPC      H12Y           35.8158267669      -10.7982751215        5.7825958726  MEMB      46              0.0000000000
      4292        46  POPC      C313           37.3842941008      -11.0886780774        4.4387282728  MEMB      46              0.0000000000
      4293        46  POPC      H13X           36.9169021871      -10.2518214801        3.8770018512  MEMB      46              0.0000000000
      4294        46  POPC      H13Y           37.0545213544      -12.0316121749        3.9524717139  MEMB      46              0.0000000000
      4295        46  POPC      C314           38.9476450992      -10.8440804489        4.2749874524  MEMB      46              0.0000000000
      4296        46  POPC      H14X           39.4494805718      -11.5934350822        4.9237938621  MEMB      46              0.0000000000
      4297        46  POPC      H14Y           39.2902490385       -9.8331316224        4.5830884932  MEMB      46              0.0000000000
      4298        46  POPC      C315           39.4701751491      -11.2709169079        2.8328816234  MEMB      46              0.0000000000
      4299        46  POPC      H15X           38.9019541156      -12.1851135786        2.5577637331  MEMB      46              0.0000000000
      4300        46  POPC      H15Y           40.4775272675      -11.6511830566        3.1066699199  MEMB      46              0.0000000000
      4301        46  POPC      C316           39.5183999101      -10.2687224883        1.6538756504  MEMB      46              0.0000000000
      4302        46  POPC      H16X           40.2432509299       -9.4435665324        1.8212962848  MEMB      46              0.0000000000
      4303        46  POPC      H16Y           38.5340711446       -9.8274574440        1.3879744580  MEMB      46              0.0000000000
      4304        46  POPC      H16Z           39.9648571915      -10.8142838842        0.7951797356  MEMB      46              0.0000000000
      4305        47  POPC      N              38.8789218681        0.9359780547       19.2517347420  MEMB      47              0.0000000000
      4306        47  POPC      C12            39.8811438863       -0.2125105023       18.8798481274  MEMB      47              0.0000000000
      4307        47  POPC      H12A           39.9964656396       -0.1702429483       17.8068550016  MEMB      47              0.0000000000
      4308        47  POPC      H12B           39.3931310181       -1.1414723529       19.1353344733  MEMB      47              0.0000000000
      4309        47  POPC      C13            39.3336589000        2.2076275691       18.5457930382  MEMB      47              0.0000000000
      4310        47  POPC      H13A           38.5276227687        2.9035009786       18.3656096749  MEMB      47              0.0000000000
      4311        47  POPC      H13B           40.0523116747        2.7184163239       19.1695180877  MEMB      47              0.0000000000
      4312        47  POPC      H13C           39.7938685379        2.0271293444       17.5855703996  MEMB      47              0.0000000000
      4313        47  POPC      C14            37.4768486273        0.5791802423       18.8362134419  MEMB      47              0.0000000000
      4314        47  POPC      H14A           37.1801721328       -0.3596927650       19.2799484283  MEMB      47              0.0000000000
      4315        47  POPC      H14B           36.7491808907        1.3497761250       19.0437753288  MEMB      47              0.0000000000
      4316        47  POPC      H14C           37.4376063784        0.3871440121       17.7741484318  MEMB      47              0.0000000000
      4317        47  POPC      C15            38.7277702250        1.1652040055       20.7413642443  MEMB      47              0.0000000000
      4318        47  POPC      H15A           39.6980181335        1.3845334652       21.1619750613  MEMB      47              0.0000000000
      4319        47  POPC      H15B           38.3022910320        0.2163511799       21.0329905741  MEMB      47              0.0000000000
      4320        47  POPC      H15C           38.0687265082        1.9739000478       21.0207782085  MEMB      47              0.0000000000
      4321        47  POPC      C11            41.2853278923       -0.1346220108       19.5676044503  MEMB      47              0.0000000000
      4322        47  POPC      H11A           42.0053102835       -0.8386959229       19.0983217727  MEMB      47              0.0000000000
      4323        47  POPC      H11B           41.1750744839       -0.4626039031       20.6233473512  MEMB      47              0.0000000000
      4324        47  POPC      P              43.1587211224        1.5330367987       18.6372289528  MEMB      47              0.0000000000
      4325        47  POPC      O13            44.3741791505        1.3222107660       19.4927125712  MEMB      47              0.0000000000
      4326        47  POPC      O14            43.0016084786        2.9296652896       18.1708598379  MEMB      47              0.0000000000
      4327        47  POPC      O12            41.8319731482        1.1565364819       19.5177764826  MEMB      47              0.0000000000
      4328        47  POPC      O11            43.1048973024        0.5937898823       17.3588641139  MEMB      47              0.0000000000
      4329        47  POPC      C1             44.3392644513        0.4252965777       16.6682724821  MEMB      47              0.0000000000
      4330        47  POPC      HA             45.0564791689       -0.2542878776       17.1762968968  MEMB      47              0.0000000000
      4331        47  POPC      HB             44.8061129042        1.3838219897       16.3558588083  MEMB      47              0.0000000000
      4332        47  POPC      C2             44.1072915776       -0.2246620021       15.2525180523  MEMB      47              0.0000000000
      4333        47  POPC      HS             45.0607143357       -0.5286531493       14.7699256712  MEMB      47              0.0000000000
      4334        47  POPC      O21            43.4036902033        0.7484512254       14.3677568936  MEMB      47              0.0000000000
      4335        47  POPC      C21            44.2306321676        1.5232544766       13.7387540513  MEMB      47              0.0000000000
      4336        47  POPC      O22            45.4221046105        1.6690454252       13.7518649212  MEMB      47              0.0000000000
      4337        47  POPC      C22            43.3242196171        2.2978019303       12.7756346520  MEMB      47              0.0000000000
      4338        47  POPC      H2R            43.9679773853        3.0085114699       12.2145741205  MEMB      47              0.0000000000
      4339        47  POPC      H2S            42.5766851561        2.8302991125       13.4017015314  MEMB      47              0.0000000000
      4340        47  POPC      C3             43.3334347615       -1.5893446155       15.2175193030  MEMB      47              0.0000000000
      4341        47  POPC      HX             42.3975269683       -1.5079701614       15.8106261497  MEMB      47              0.0000000000
      4342        47  POPC      HY             43.9756570228       -2.3489075179       15.7124289294  MEMB      47              0.0000000000
      4343        47  POPC      O31            42.8466115933       -1.9433533908       13.9867442667  MEMB      47              0.0000000000
      4344        47  POPC      C31            43.5496948549       -2.9281587879       13.1960217724  MEMB      47              0.0000000000
      4345        47  POPC      O32            44.4066118801       -3.5951406989       13.6982448127  MEMB      47              0.0000000000
      4346        47  POPC      C32            42.9912528424       -3.0196845278       11.8115625816  MEMB      47              0.0000000000
      4347        47  POPC      H2X            42.2362330111       -2.2046612229       11.8098610519  MEMB      47              0.0000000000
      4348        47  POPC      H2Y            42.4094416832       -3.9659349032       11.7909063761  MEMB      47              0.0000000000
      4349        47  POPC      C23            42.6066398141        1.2959903685       11.7903392155  MEMB      47              0.0000000000
      4350        47  POPC      H3R            41.5733964730        1.1061516278       12.1518504287  MEMB      47              0.0000000000
      4351        47  POPC      H3S            42.9905191990        0.2552657149       11.8523866757  MEMB      47              0.0000000000
      4352        47  POPC      C24            42.3593216016        1.8589277197       10.4192950008  MEMB      47              0.0000000000
      4353        47  POPC      H4R            41.8357463728        2.8335366297       10.5209196816  MEMB      47              0.0000000000
      4354        47  POPC      H4S            41.6854698719        1.1859049513        9.8472070424  MEMB      47              0.0000000000
      4355        47  POPC      C25            43.7130090986        1.8570206475        9.6061632637  MEMB      47              0.0000000000
      4356        47  POPC      H5R            44.1375445265        0.8429944720        9.7669165827  MEMB      47              0.0000000000
      4357        47  POPC      H5S            44.4591598565        2.5833931183        9.9934138414  MEMB      47              0.0000000000
      4358        47  POPC      C26            43.5025998966        2.1641413380        8.0618957264  MEMB      47              0.0000000000
      4359        47  POPC      H6R            43.2915367854        3.2547568603        8.0436972414  MEMB      47              0.0000000000
      4360        47  POPC      H6S            42.6300262667        1.6888740408        7.5648467080  MEMB      47              0.0000000000
      4361        47  POPC      C27            44.7617274825        1.7414213173        7.3119826547  MEMB      47              0.0000000000
      4362        47  POPC      H7R            44.7886716862        0.6400138006        7.1688164859  MEMB      47              0.0000000000
      4363        47  POPC      H7S            45.5803335917        2.0687596037        7.9880405778  MEMB      47              0.0000000000
      4364        47  POPC      C28            44.9183795774        2.5865609474        5.9645812569  MEMB      47              0.0000000000
      4365        47  POPC      H8R            45.8893480822        2.2823175568        5.5185120290  MEMB      47              0.0000000000
      4366        47  POPC      H8S            44.6571291830        3.6512290391        6.1449999458  MEMB      47              0.0000000000
      4367        47  POPC      C29            43.8180249848        2.3018165636        4.9190568667  MEMB      47              0.0000000000
      4368        47  POPC      H91            42.9901742382        3.0257126599        4.8938091443  MEMB      47              0.0000000000
      4369        47  POPC      C210           43.7819625504        1.2355813297        4.1416641078  MEMB      47              0.0000000000
      4370        47  POPC      H101           43.1777461169        1.3509402930        3.2297349449  MEMB      47              0.0000000000
      4371        47  POPC      C211           44.7891084647        0.0372576180        4.1327660847  MEMB      47              0.0000000000
      4372        47  POPC      H11R           45.3499246693       -0.0747039952        5.0852741396  MEMB      47              0.0000000000
      4373        47  POPC      H11S           45.3955391154        0.1192167566        3.2054884979  MEMB      47              0.0000000000
      4374        47  POPC      C212           44.0157521409       -1.3547312984        3.9551104785  MEMB      47              0.0000000000
      4375        47  POPC      H12R           43.1224444541       -1.4310849914        4.6112297996  MEMB      47              0.0000000000
      4376        47  POPC      H12S           44.7036671158       -2.2111597489        4.1213153963  MEMB      47              0.0000000000
      4377        47  POPC      C213           43.5054529579       -1.5707413915        2.5465255593  MEMB      47              0.0000000000
      4378        47  POPC      H13R           42.9771928340       -0.6921640912        2.1183165604  MEMB      47              0.0000000000
      4379        47  POPC      H13S           42.7495285407       -2.3835214260        2.4986967487  MEMB      47              0.0000000000
      4380        47  POPC      C214           44.6108252517       -1.9774499597        1.4964970520  MEMB      47              0.0000000000
      4381        47  POPC      H14R           45.3087074580       -2.7006728198        1.9700265700  MEMB      47              0.0000000000
      4382        47  POPC      H14S           45.1961172023       -1.0479941612        1.3295651476  MEMB      47              0.0000000000
      4383        47  POPC      C215           44.1314515875       -2.5149434143        0.1321428989  MEMB      47              0.0000000000
      4384        47  POPC      H15R           43.5291575387       -3.4479082670        0.1658973633  MEMB      47              0.0000000000
      4385        47  POPC      H15S           45.0563268942       -2.7768086099       -0.4249507670  MEMB      47              0.0000000000
      4386        47  POPC      C216           43.3069678688       -1.4191385486       -0.6592253672  MEMB      47              0.0000000000
      4387        47  POPC      H16R           43.9254469606       -0.5083825870       -0.5098009227  MEMB      47              0.0000000000
      4388        47  POPC      H16S           42.3410346191       -1.2304065322       -0.1437887476  MEMB      47              0.0000000000
      4389        47  POPC      C217           42.9834027026       -1.8023363912       -2.1491367544  MEMB      47              0.0000000000
      4390        47  POPC      H17R           43.8397102972       -2.2983127497       -2.6541775625  MEMB      47              0.0000000000
      4391        47  POPC      H17S           42.8341848593       -0.8678255705       -2.7311546925  MEMB      47              0.0000000000
      4392        47  POPC      C218           41.7600693595       -2.6849036145       -2.2864954878  MEMB      47              0.0000000000
      4393        47  POPC      H18R           41.8656690930       -3.1703020568       -3.2802546844  MEMB      47              0.0000000000
      4394        47  POPC      H18S           40.7786762307       -2.2241729105       -2.0437701134  MEMB      47              0.0000000000
      4395        47  POPC      H18T           41.8401481058       -3.5743416312       -1.6255812961  MEMB      47              0.0000000000
      4396        47  POPC      C33            43.9818743269       -3.1007821451       10.6682333487  MEMB      47              0.0000000000
      4397        47  POPC      H3X            44.5646689238       -4.0448164135       10.7271444746  MEMB      47              0.0000000000
      4398        47  POPC      H3Y            44.6987542735       -2.2703323776       10.8436096792  MEMB      47              0.0000000000
      4399        47  POPC      C34            43.3949644386       -2.8336074407        9.1801738191  MEMB      47              0.0000000000
      4400        47  POPC      H4X            44.1744830166       -3.0144446342        8.4094791243  MEMB      47              0.0000000000
      4401        47  POPC      H4Y            43.2256957672       -1.7356194788        9.1897411651  MEMB      47              0.0000000000
      4402        47  POPC      C35            42.1248191577       -3.6123543576        8.9008582504  MEMB      47              0.0000000000
      4403        47  POPC      H5X            41.4317396418       -3.5676494671        9.7680164205  MEMB      47              0.0000000000
      4404        47  POPC      H5Y            42.4736801171       -4.6659184254        8.8496706761  MEMB      47              0.0000000000
      4405        47  POPC      C36            41.4666656104       -3.3252486424        7.5089550597  MEMB      47              0.0000000000
      4406        47  POPC      H6X            40.4801580456       -3.8354592149        7.4805148075  MEMB      47              0.0000000000
      4407        47  POPC      H6Y            42.0673555941       -3.6938217873        6.6500919332  MEMB      47              0.0000000000
      4408        47  POPC      C37            41.1480432574       -1.8692360418        7.3590044179  MEMB      47              0.0000000000
      4409        47  POPC      H7X            42.1107787690       -1.3406479753        7.1915056032  MEMB      47              0.0000000000
      4410        47  POPC      H7Y            40.8712930603       -1.4852227388        8.3641232306  MEMB      47              0.0000000000
      4411        47  POPC      C38            40.1306859854       -1.4643201616        6.2266663064  MEMB      47              0.0000000000
      4412        47  POPC      H8X            39.2337083606       -2.1192723705        6.2547709856  MEMB      47              0.0000000000
      4413        47  POPC      H8Y            40.6501415936       -1.7230132530        5.2792674814  MEMB      47              0.0000000000
      4414        47  POPC      C39            39.4040088735       -0.1140720860        6.3340910216  MEMB      47              0.0000000000
      4415        47  POPC      H9X            39.0787332973        0.2095677619        7.3459081905  MEMB      47              0.0000000000
      4416        47  POPC      H9Y            38.5366370136       -0.2251349551        5.6487796895  MEMB      47              0.0000000000
      4417        47  POPC      C310           40.1355410821        1.1746624593        5.8252650119  MEMB      47              0.0000000000
      4418        47  POPC      H10X           41.1404224047        1.2001226985        6.2984307480  MEMB      47              0.0000000000
      4419        47  POPC      H10Y           39.5184544038        2.0430244649        6.1406572092  MEMB      47              0.0000000000
      4420        47  POPC      C311           40.4954026582        1.2167576141        4.3116626913  MEMB      47              0.0000000000
      4421        47  POPC      H11X           41.1874312127        0.3855371141        4.0577147732  MEMB      47              0.0000000000
      4422        47  POPC      H11Y           40.9932673315        2.1991244207        4.1653506836  MEMB      47              0.0000000000
      4423        47  POPC      C312           39.2941393661        1.0583700881        3.3744368475  MEMB      47              0.0000000000
      4424        47  POPC      H12X           38.6261465165        1.9454948964        3.4078468738  MEMB      47              0.0000000000
      4425        47  POPC      H12Y           38.6886217463        0.1490254479        3.5763324607  MEMB      47              0.0000000000
      4426        47  POPC      C313           39.6930918924        0.6076378452        1.9569478882  MEMB      47              0.0000000000
      4427        47  POPC      H13X           38.8181625271        0.0961913712        1.5017075058  MEMB      47              0.0000000000
      4428        47  POPC      H13Y           40.4703697290       -0.1683964477        2.1240723510  MEMB      47              0.0000000000
      4429        47  POPC      C314           40.1806604602        1.7274667806        1.0425347535  MEMB      47              0.0000000000
      4430        47  POPC      H14X           41.2913988123        1.7190140227        1.0199548735  MEMB      47              0.0000000000
      4431        47  POPC      H14Y           39.7800405285        2.7083804048        1.3766495211  MEMB      47              0.0000000000
      4432        47  POPC      C315           39.7917677815        1.5002670420       -0.4917693438  MEMB      47              0.0000000000
      4433        47  POPC      H15X           40.2643153461        2.2372255813       -1.1758102118  MEMB      47              0.0000000000
      4434        47  POPC      H15Y           38.7020788254        1.7165995694       -0.4818039518  MEMB      47              0.0000000000
      4435        47  POPC      C316           40.0609083568        0.1698214381       -1.0557908749  MEMB      47              0.0000000000
      4436        47  POPC      H16X           41.1521833156       -0.0335256340       -1.1015083923  MEMB      47              0.0000000000
      4437        47  POPC      H16Y           39.5962643048        0.1709387093       -2.0649628254  MEMB      47              0.0000000000
      4438        47  POPC      H16Z           39.5941882039       -0.6107331791       -0.4176480196  MEMB      47              0.0000000000
      4439        48  POPC      N              43.3525632013        9.3009629109       19.3618189154  MEMB      48              0.0000000000
      4440        48  POPC      C12            41.8803406687        8.9899734529       19.8487053620  MEMB      48              0.0000000000
      4441        48  POPC      H12A           41.5591757452        9.5514588759       20.7135679078  MEMB      48              0.0000000000
      4442        48  POPC      H12B           42.0045380544        7.9406769131       20.0722042937  MEMB      48              0.0000000000
      4443        48  POPC      C13            43.2959516573       10.8046976621       18.9559005074  MEMB      48              0.0000000000
      4444        48  POPC      H13A           44.2365211709       11.0261587025       18.4735275205  MEMB      48              0.0000000000
      4445        48  POPC      H13B           42.5942635150       10.9034381806       18.1408642987  MEMB      48              0.0000000000
      4446        48  POPC      H13C           43.0901753329       11.4815304026       19.7719602080  MEMB      48              0.0000000000
      4447        48  POPC      C14            44.1922519581        9.2497131182       20.5363494145  MEMB      48              0.0000000000
      4448        48  POPC      H14A           43.8487540397        9.8983767200       21.3285897206  MEMB      48              0.0000000000
      4449        48  POPC      H14B           44.1688725473        8.2198229083       20.8606630562  MEMB      48              0.0000000000
      4450        48  POPC      H14C           45.2057431326        9.4591281433       20.2275112041  MEMB      48              0.0000000000
      4451        48  POPC      C15            43.8321427544        8.5322178993       18.1743421021  MEMB      48              0.0000000000
      4452        48  POPC      H15A           43.1538775950        8.6189672263       17.3383810806  MEMB      48              0.0000000000
      4453        48  POPC      H15B           43.9365145946        7.4940841691       18.4532414441  MEMB      48              0.0000000000
      4454        48  POPC      H15C           44.7990673080        8.8757166998       17.8374957948  MEMB      48              0.0000000000
      4455        48  POPC      C11            40.7774351199        9.0511574658       18.8286029808  MEMB      48              0.0000000000
      4456        48  POPC      H11A           39.8136701849        8.5866582186       19.1281333619  MEMB      48              0.0000000000
      4457        48  POPC      H11B           41.1239994523        8.3284846500       18.0592148588  MEMB      48              0.0000000000
      4458        48  POPC      P              39.5752671229       11.5401673991       18.7423714729  MEMB      48              0.0000000000
      4459        48  POPC      O13            40.4221715119       12.7762634438       18.8646130213  MEMB      48              0.0000000000
      4460        48  POPC      O14            38.8513380631       11.1527833747       19.9436849984  MEMB      48              0.0000000000
      4461        48  POPC      O12            40.4855618248       10.2960253780       18.1797112676  MEMB      48              0.0000000000
      4462        48  POPC      O11            38.5788135207       11.6835152918       17.5638999536  MEMB      48              0.0000000000
      4463        48  POPC      C1             37.9257060867       10.5278673356       17.1176775252  MEMB      48              0.0000000000
      4464        48  POPC      HA             36.8654351302       10.5855780649       17.4445047111  MEMB      48              0.0000000000
      4465        48  POPC      HB             38.2392628787        9.5680031859       17.5809961016  MEMB      48              0.0000000000
      4466        48  POPC      C2             38.0300494590       10.3282784808       15.5037934954  MEMB      48              0.0000000000
      4467        48  POPC      HS             37.6826382265        9.2915065114       15.3069930339  MEMB      48              0.0000000000
      4468        48  POPC      O21            39.3607672815       10.3135777027       15.0077177601  MEMB      48              0.0000000000
      4469        48  POPC      C21            40.0489910002        9.1562833912       15.1088895649  MEMB      48              0.0000000000
      4470        48  POPC      O22            39.6858305266        8.0589872219       15.5184554998  MEMB      48              0.0000000000
      4471        48  POPC      C22            41.4614218803        9.5458872970       14.6530369369  MEMB      48              0.0000000000
      4472        48  POPC      H2R            42.0131117931        9.7119773591       15.6029704265  MEMB      48              0.0000000000
      4473        48  POPC      H2S            41.4557472363       10.4068389354       13.9508609426  MEMB      48              0.0000000000
      4474        48  POPC      C3             37.1943755598       11.4198385968       14.7177614601  MEMB      48              0.0000000000
      4475        48  POPC      HX             37.6184419454       12.3935017197       15.0440571910  MEMB      48              0.0000000000
      4476        48  POPC      HY             36.1249701494       11.5067738892       15.0060931782  MEMB      48              0.0000000000
      4477        48  POPC      O31            37.3435636162       11.3567275063       13.2719328889  MEMB      48              0.0000000000
      4478        48  POPC      C31            36.6154330446       10.4890109999       12.6832073952  MEMB      48              0.0000000000
      4479        48  POPC      O32            35.8328258427        9.7208374669       13.2254922876  MEMB      48              0.0000000000
      4480        48  POPC      C32            37.1711281741       10.3186711344       11.2532232381  MEMB      48              0.0000000000
      4481        48  POPC      H2X            37.9170525289       11.1248127032       11.0857324620  MEMB      48              0.0000000000
      4482        48  POPC      H2Y            36.3706456518       10.4509414630       10.4942416084  MEMB      48              0.0000000000
      4483        48  POPC      C23            42.1295258098        8.3406946259       14.0485276217  MEMB      48              0.0000000000
      4484        48  POPC      H3R            41.4685824558        8.0963685081       13.1895867325  MEMB      48              0.0000000000
      4485        48  POPC      H3S            42.1198385492        7.3593902990       14.5693620833  MEMB      48              0.0000000000
      4486        48  POPC      C24            43.5510820588        8.5307694134       13.4548617503  MEMB      48              0.0000000000
      4487        48  POPC      H4R            43.7816768836        7.7076800103       12.7451639436  MEMB      48              0.0000000000
      4488        48  POPC      H4S            44.3596926303        8.4560169912       14.2130716419  MEMB      48              0.0000000000
      4489        48  POPC      C25            43.8137086149        9.8412366240       12.8571790082  MEMB      48              0.0000000000
      4490        48  POPC      H5R            44.8676942072        9.9756295212       12.5325659143  MEMB      48              0.0000000000
      4491        48  POPC      H5S            43.6137462294       10.7192235215       13.5079285802  MEMB      48              0.0000000000
      4492        48  POPC      C26            42.9208694515        9.9454005874       11.5804509240  MEMB      48              0.0000000000
      4493        48  POPC      H6R            41.8473799931        9.9725332921       11.8654159829  MEMB      48              0.0000000000
      4494        48  POPC      H6S            43.0234178593        9.0309400175       10.9579016659  MEMB      48              0.0000000000
      4495        48  POPC      C27            43.3035763177       11.0859474769       10.6687085265  MEMB      48              0.0000000000
      4496        48  POPC      H7R            44.4055409229       11.1534702745       10.7929498922  MEMB      48              0.0000000000
      4497        48  POPC      H7S            42.9159782831       11.9837836167       11.1959455181  MEMB      48              0.0000000000
      4498        48  POPC      C28            42.8347819244       10.9562095306        9.1221658003  MEMB      48              0.0000000000
      4499        48  POPC      H8R            41.7476497675       11.0332889810        9.3378587124  MEMB      48              0.0000000000
      4500        48  POPC      H8S            43.1525812068        9.9336818096        8.8259194034  MEMB      48              0.0000000000
      4501        48  POPC      C29            43.4380760499       12.0039606978        8.2786975615  MEMB      48              0.0000000000
      4502        48  POPC      H91            44.5207535909       11.8303422441        8.1911417246  MEMB      48              0.0000000000
      4503        48  POPC      C210           42.7768297972       13.0574991493        7.7309847980  MEMB      48              0.0000000000
      4504        48  POPC      H101           43.2873449274       13.7062558592        7.0040113419  MEMB      48              0.0000000000
      4505        48  POPC      C211           41.2953884885       13.4353979975        7.8789563955  MEMB      48              0.0000000000
      4506        48  POPC      H11R           41.2470473578       14.4754627755        8.2665769192  MEMB      48              0.0000000000
      4507        48  POPC      H11S           40.8360445888       12.8572319410        8.7090459372  MEMB      48              0.0000000000
      4508        48  POPC      C212           40.5420141491       13.1958638450        6.6267434251  MEMB      48              0.0000000000
      4509        48  POPC      H12R           40.8862761835       13.7167950985        5.7078116383  MEMB      48              0.0000000000
      4510        48  POPC      H12S           39.5973538059       13.7212007001        6.8835685845  MEMB      48              0.0000000000
      4511        48  POPC      C213           40.1998757637       11.7312839845        6.4107076911  MEMB      48              0.0000000000
      4512        48  POPC      H13R           39.7117321024       11.4005653436        7.3523342639  MEMB      48              0.0000000000
      4513        48  POPC      H13S           41.1986393020       11.2466719020        6.3666222879  MEMB      48              0.0000000000
      4514        48  POPC      C214           39.2105752530       11.3245553012        5.3439029517  MEMB      48              0.0000000000
      4515        48  POPC      H14R           39.0446087882       10.2261627752        5.3615050958  MEMB      48              0.0000000000
      4516        48  POPC      H14S           39.5468662382       11.6199633249        4.3270625783  MEMB      48              0.0000000000
      4517        48  POPC      C215           37.7888060394       11.8753373404        5.6683201879  MEMB      48              0.0000000000
      4518        48  POPC      H15R           37.8739450691       12.9762828560        5.5458814308  MEMB      48              0.0000000000
      4519        48  POPC      H15S           37.5912164552       11.5916693167        6.7241672348  MEMB      48              0.0000000000
      4520        48  POPC      C216           36.7723837236       11.3013198680        4.6766491184  MEMB      48              0.0000000000
      4521        48  POPC      H16R           35.9307382433       12.0248737828        4.7258798289  MEMB      48              0.0000000000
      4522        48  POPC      H16S           36.4288638400       10.2850789013        4.9657334367  MEMB      48              0.0000000000
      4523        48  POPC      C217           36.9569076670       11.3603155057        3.1705602893  MEMB      48              0.0000000000
      4524        48  POPC      H17R           37.9874519700       10.9964381791        2.9708284417  MEMB      48              0.0000000000
      4525        48  POPC      H17S           36.8253813908       12.4368666926        2.9296051880  MEMB      48              0.0000000000
      4526        48  POPC      C218           36.0252229182       10.3622892470        2.5685087348  MEMB      48              0.0000000000
      4527        48  POPC      H18R           36.2382963140       10.2329828915        1.4858257689  MEMB      48              0.0000000000
      4528        48  POPC      H18S           34.9640324773       10.6847038870        2.6336566578  MEMB      48              0.0000000000
      4529        48  POPC      H18T           36.1988729622        9.3348465943        2.9539010654  MEMB      48              0.0000000000
      4530        48  POPC      C33            37.8588092381        8.8984884658       10.9299736737  MEMB      48              0.0000000000
      4531        48  POPC      H3X            37.8629667812        8.9913459839        9.8228683546  MEMB      48              0.0000000000
      4532        48  POPC      H3Y            37.2853578643        7.9810642865       11.1825749912  MEMB      48              0.0000000000
      4533        48  POPC      C34            39.3075028158        8.7614263051       11.2690909931  MEMB      48              0.0000000000
      4534        48  POPC      H4X            39.5214656456        8.8906152321       12.3516119162  MEMB      48              0.0000000000
      4535        48  POPC      H4Y            39.8515172598        9.5917899506       10.7702270506  MEMB      48              0.0000000000
      4536        48  POPC      C35            39.8323878110        7.4283914058       10.8488538222  MEMB      48              0.0000000000
      4537        48  POPC      H5X            39.2007346116        6.5777255931       11.1830741690  MEMB      48              0.0000000000
      4538        48  POPC      H5Y            40.7209307254        7.2687582641       11.4964112404  MEMB      48              0.0000000000
      4539        48  POPC      C36            40.0809607069        7.1586493577        9.3908256287  MEMB      48              0.0000000000
      4540        48  POPC      H6X            39.1283594361        7.1434617897        8.8192997556  MEMB      48              0.0000000000
      4541        48  POPC      H6Y            40.4317053046        6.1119990431        9.2650389160  MEMB      48              0.0000000000
      4542        48  POPC      C37            41.1494223104        8.0368366324        8.7858512202  MEMB      48              0.0000000000
      4543        48  POPC      H7X            42.1553970261        7.8464414383        9.2172278811  MEMB      48              0.0000000000
      4544        48  POPC      H7Y            40.8878062649        9.1159850296        8.8221372816  MEMB      48              0.0000000000
      4545        48  POPC      C38            41.1937862548        7.5667311180        7.3195089104  MEMB      48              0.0000000000
      4546        48  POPC      H8X            40.2480486466        7.9483803539        6.8787765500  MEMB      48              0.0000000000
      4547        48  POPC      H8Y            41.1175626865        6.4680033672        7.1735354858  MEMB      48              0.0000000000
      4548        48  POPC      C39            42.3559026261        8.0372055861        6.5355653326  MEMB      48              0.0000000000
      4549        48  POPC      H9X            43.2492684017        7.7357584220        7.1232284095  MEMB      48              0.0000000000
      4550        48  POPC      H9Y            42.3755145722        9.1479499237        6.5491096208  MEMB      48              0.0000000000
      4551        48  POPC      C310           42.3889254034        7.4817405923        5.0427787866  MEMB      48              0.0000000000
      4552        48  POPC      H10X           41.4384001692        7.9329549383        4.6860884266  MEMB      48              0.0000000000
      4553        48  POPC      H10Y           42.1612509727        6.3959789451        4.9827224813  MEMB      48              0.0000000000
      4554        48  POPC      C311           43.5935211374        7.9386923089        4.1298369747  MEMB      48              0.0000000000
      4555        48  POPC      H11X           43.1972060914        7.6134935438        3.1441900754  MEMB      48              0.0000000000
      4556        48  POPC      H11Y           44.4880000152        7.3559882622        4.4375463055  MEMB      48              0.0000000000
      4557        48  POPC      C312           43.7224682369        9.5419554225        3.9587258950  MEMB      48              0.0000000000
      4558        48  POPC      H12X           44.7109275753        9.7464433725        3.4945558412  MEMB      48              0.0000000000
      4559        48  POPC      H12Y           43.6542722352       10.0803440478        4.9281627293  MEMB      48              0.0000000000
      4560        48  POPC      C313           42.6292439622       10.2333736900        3.1027022750  MEMB      48              0.0000000000
      4561        48  POPC      H13X           42.4742078082       11.1788439684        3.6651704671  MEMB      48              0.0000000000
      4562        48  POPC      H13Y           41.6251805999        9.8325391452        3.3586502978  MEMB      48              0.0000000000
      4563        48  POPC      C314           42.8550684997       10.2748690442        1.5567400950  MEMB      48              0.0000000000
      4564        48  POPC      H14X           42.9182094451        9.2354295182        1.1695724811  MEMB      48              0.0000000000
      4565        48  POPC      H14Y           43.7875215019       10.8216934902        1.3001557183  MEMB      48              0.0000000000
      4566        48  POPC      C315           41.7832203180       11.0792307900        0.8519484808  MEMB      48              0.0000000000
      4567        48  POPC      H15X           41.9784697337       11.2447254988       -0.2291654778  MEMB      48              0.0000000000
      4568        48  POPC      H15Y           41.8846117326       12.0506432858        1.3814761927  MEMB      48              0.0000000000
      4569        48  POPC      C316           40.3820424334       10.4923029163        0.9635706456  MEMB      48              0.0000000000
      4570        48  POPC      H16X           40.4568847522        9.4286720081        0.6514663496  MEMB      48              0.0000000000
      4571        48  POPC      H16Y           39.6802073328       11.0370938319        0.2965233428  MEMB      48              0.0000000000
      4572        48  POPC      H16Z           40.0062827866       10.4652950380        2.0087470751  MEMB      48              0.0000000000
      4573        49  POPC      N             -30.6342394867       20.1449861479       20.7047299573  MEMB      49              0.0000000000
      4574        49  POPC      C12           -31.4797487546       21.3653912881       20.8398125154  MEMB      49              0.0000000000
      4575        49  POPC      H12A          -30.8788894519       21.9343473164       21.5338279235  MEMB      49              0.0000000000
      4576        49  POPC      H12B          -32.4944899412       21.1935593245       21.1671871227  MEMB      49              0.0000000000
      4577        49  POPC      C13           -29.2492578679       20.3385310052       20.1590624628  MEMB      49              0.0000000000
      4578        49  POPC      H13A          -29.4210427597       20.6128935916       19.1287153298  MEMB      49              0.0000000000
      4579        49  POPC      H13B          -28.5581545964       21.0281057557       20.6208663092  MEMB      49              0.0000000000
      4580        49  POPC      H13C          -28.7542174425       19.3787649424       20.1726207196  MEMB      49              0.0000000000
      4581        49  POPC      C14           -30.3123398397       19.5621862993       22.1004976345  MEMB      49              0.0000000000
      4582        49  POPC      H14A          -31.1739390437       19.4068245685       22.7328819108  MEMB      49              0.0000000000
      4583        49  POPC      H14B          -29.6711556063       18.6997325026       21.9934633970  MEMB      49              0.0000000000
      4584        49  POPC      H14C          -29.7348176646       20.3202010487       22.6087119549  MEMB      49              0.0000000000
      4585        49  POPC      C15           -31.3479984764       19.1376882294       19.8836172431  MEMB      49              0.0000000000
      4586        49  POPC      H15A          -31.8496830648       19.6327122060       19.0652872615  MEMB      49              0.0000000000
      4587        49  POPC      H15B          -32.1495539639       18.7862913420       20.5164119162  MEMB      49              0.0000000000
      4588        49  POPC      H15C          -30.6186474075       18.3793842482       19.6398509202  MEMB      49              0.0000000000
      4589        49  POPC      C11           -31.6970276978       22.3243439380       19.6084342870  MEMB      49              0.0000000000
      4590        49  POPC      H11A          -30.7012324676       22.7579743759       19.3746020378  MEMB      49              0.0000000000
      4591        49  POPC      H11B          -32.3455699105       23.1220640756       20.0295715276  MEMB      49              0.0000000000
      4592        49  POPC      P             -31.9641649359       21.8562556153       17.0605625118  MEMB      49              0.0000000000
      4593        49  POPC      O13           -31.7983498272       23.3191416394       16.8270048937  MEMB      49              0.0000000000
      4594        49  POPC      O14           -32.9504476667       21.0999460555       16.2627631306  MEMB      49              0.0000000000
      4595        49  POPC      O12           -32.2629289448       21.6119072002       18.5581189872  MEMB      49              0.0000000000
      4596        49  POPC      O11           -30.5648887443       21.1959197023       16.9953963786  MEMB      49              0.0000000000
      4597        49  POPC      C1            -29.3871259009       21.8899681393       16.7255534056  MEMB      49              0.0000000000
      4598        49  POPC      HA            -28.6165879845       21.2656389111       17.2263581917  MEMB      49              0.0000000000
      4599        49  POPC      HB            -29.3650518489       22.8282291888       17.3201120009  MEMB      49              0.0000000000
      4600        49  POPC      C2            -29.0465831385       22.1443040210       15.2352753605  MEMB      49              0.0000000000
      4601        49  POPC      HS            -29.8288364404       22.8301863404       14.8454468033  MEMB      49              0.0000000000
      4602        49  POPC      O21           -29.0763100906       20.8620498185       14.5967954734  MEMB      49              0.0000000000
      4603        49  POPC      C21           -30.1853798828       20.5688738918       13.9526128351  MEMB      49              0.0000000000
      4604        49  POPC      O22           -31.1928027358       21.2353561555       13.9767858778  MEMB      49              0.0000000000
      4605        49  POPC      C22           -30.0703438079       19.3302084229       13.1207931825  MEMB      49              0.0000000000
      4606        49  POPC      H2R           -30.5918025152       18.4746183402       13.6007596332  MEMB      49              0.0000000000
      4607        49  POPC      H2S           -28.9956226565       19.0591226659       13.0445814742  MEMB      49              0.0000000000
      4608        49  POPC      C3            -27.7350831713       22.8381985906       14.8815062212  MEMB      49              0.0000000000
      4609        49  POPC      HX            -26.9015490177       22.1399274365       15.1094523353  MEMB      49              0.0000000000
      4610        49  POPC      HY            -27.5789964044       23.8246003940       15.3683010180  MEMB      49              0.0000000000
      4611        49  POPC      O31           -27.7616308844       23.0035240764       13.3805747623  MEMB      49              0.0000000000
      4612        49  POPC      C31           -28.1893570483       24.1852951001       13.0411763291  MEMB      49              0.0000000000
      4613        49  POPC      O32           -28.5139231000       25.1114179148       13.8177274163  MEMB      49              0.0000000000
      4614        49  POPC      C32           -28.2983596991       24.2252308627       11.5085333811  MEMB      49              0.0000000000
      4615        49  POPC      H2X           -28.9246954750       23.3516144399       11.2277860341  MEMB      49              0.0000000000
      4616        49  POPC      H2Y           -27.3006919276       24.3372966289       11.0326960238  MEMB      49              0.0000000000
      4617        49  POPC      C23           -30.8309420411       19.5669061366       11.8563911567  MEMB      49              0.0000000000
      4618        49  POPC      H3R           -31.8328238109       20.0352920521       11.9620721782  MEMB      49              0.0000000000
      4619        49  POPC      H3S           -30.9643831299       18.6701835692       11.2142047786  MEMB      49              0.0000000000
      4620        49  POPC      C24           -29.9406527136       20.4818326046       10.9319131852  MEMB      49              0.0000000000
      4621        49  POPC      H4R           -29.8625273556       21.4509770669       11.4694786818  MEMB      49              0.0000000000
      4622        49  POPC      H4S           -30.4866181137       20.6570156960        9.9803072105  MEMB      49              0.0000000000
      4623        49  POPC      C25           -28.5857815327       19.9652868662       10.4659243598  MEMB      49              0.0000000000
      4624        49  POPC      H5R           -28.4934211094       18.8593526191       10.5178880550  MEMB      49              0.0000000000
      4625        49  POPC      H5S           -27.7230989624       20.2799941813       11.0912716216  MEMB      49              0.0000000000
      4626        49  POPC      C26           -28.1529183311       20.3663783772        9.0105775218  MEMB      49              0.0000000000
      4627        49  POPC      H6R           -28.2469523598       21.4697419799        8.9207587976  MEMB      49              0.0000000000
      4628        49  POPC      H6S           -28.8152223141       19.8787542333        8.2636519540  MEMB      49              0.0000000000
      4629        49  POPC      C27           -26.6775757376       20.0392207019        8.8838926235  MEMB      49              0.0000000000
      4630        49  POPC      H7R           -26.4647510618       18.9536568986        8.9867440387  MEMB      49              0.0000000000
      4631        49  POPC      H7S           -26.1425874456       20.4918967402        9.7459795827  MEMB      49              0.0000000000
      4632        49  POPC      C28           -26.1488863173       20.4355356480        7.4501946587  MEMB      49              0.0000000000
      4633        49  POPC      H8R           -26.5960811912       19.7397991517        6.7083802394  MEMB      49              0.0000000000
      4634        49  POPC      H8S           -25.0501775915       20.3047894376        7.3498687461  MEMB      49              0.0000000000
      4635        49  POPC      C29           -26.4099890763       21.9260899508        7.0780325163  MEMB      49              0.0000000000
      4636        49  POPC      H91           -26.1320112260       22.6915081112        7.8175351860  MEMB      49              0.0000000000
      4637        49  POPC      C210          -27.0983729721       22.3428961303        5.9770914994  MEMB      49              0.0000000000
      4638        49  POPC      H101          -27.1865011715       23.4279849656        5.8195607122  MEMB      49              0.0000000000
      4639        49  POPC      C211          -27.7289311713       21.4857352074        4.8924584110  MEMB      49              0.0000000000
      4640        49  POPC      H11R          -28.8126520869       21.6954899700        4.7664702838  MEMB      49              0.0000000000
      4641        49  POPC      H11S          -27.5631381022       20.3975407245        5.0430117959  MEMB      49              0.0000000000
      4642        49  POPC      C212          -27.1719050226       21.7546547160        3.4815141338  MEMB      49              0.0000000000
      4643        49  POPC      H12R          -27.7059249540       22.5917537278        2.9831072406  MEMB      49              0.0000000000
      4644        49  POPC      H12S          -27.4258713357       20.8475630052        2.8924416525  MEMB      49              0.0000000000
      4645        49  POPC      C213          -25.6589136518       21.8428073243        3.4388599463  MEMB      49              0.0000000000
      4646        49  POPC      H13R          -25.1874290811       20.9619614098        3.9247952980  MEMB      49              0.0000000000
      4647        49  POPC      H13S          -25.3269498785       22.7942649767        3.9066732391  MEMB      49              0.0000000000
      4648        49  POPC      C214          -25.0855493384       21.7401883577        1.9733477281  MEMB      49              0.0000000000
      4649        49  POPC      H14R          -25.2944492790       20.7230797252        1.5781617397  MEMB      49              0.0000000000
      4650        49  POPC      H14S          -23.9800535676       21.8434236501        2.0126196328  MEMB      49              0.0000000000
      4651        49  POPC      C215          -25.8542004939       22.7091374646        1.0531705744  MEMB      49              0.0000000000
      4652        49  POPC      H15R          -25.8159208327       23.7203432501        1.5117761430  MEMB      49              0.0000000000
      4653        49  POPC      H15S          -26.9262092087       22.4357791751        0.9512217604  MEMB      49              0.0000000000
      4654        49  POPC      C216          -25.2855486393       22.6739285545       -0.3797566737  MEMB      49              0.0000000000
      4655        49  POPC      H16R          -25.1936547107       21.6054577121       -0.6700085208  MEMB      49              0.0000000000
      4656        49  POPC      H16S          -24.2707708167       23.1260877396       -0.3697910895  MEMB      49              0.0000000000
      4657        49  POPC      C217          -26.1394273868       23.4537631170       -1.3615819898  MEMB      49              0.0000000000
      4658        49  POPC      H17R          -27.1178247352       22.9282062408       -1.3324335033  MEMB      49              0.0000000000
      4659        49  POPC      H17S          -25.6651317265       23.3107152645       -2.3560164427  MEMB      49              0.0000000000
      4660        49  POPC      C218          -26.4766160901       24.9358120211       -1.0972052420  MEMB      49              0.0000000000
      4661        49  POPC      H18R          -27.0111180030       25.1120036901       -0.1392988725  MEMB      49              0.0000000000
      4662        49  POPC      H18S          -27.1529812764       25.3753322262       -1.8611891380  MEMB      49              0.0000000000
      4663        49  POPC      H18T          -25.5659726016       25.5586984357       -1.2278266467  MEMB      49              0.0000000000
      4664        49  POPC      C33           -29.0682862880       25.4669523844       11.1422437453  MEMB      49              0.0000000000
      4665        49  POPC      H3X           -28.5237858923       26.2860655357       11.6588623396  MEMB      49              0.0000000000
      4666        49  POPC      H3Y           -30.0414161201       25.2702121276       11.6408741824  MEMB      49              0.0000000000
      4667        49  POPC      C34           -29.0485137643       25.6945156954        9.6502289540  MEMB      49              0.0000000000
      4668        49  POPC      H4X           -28.0113115875       25.7511781985        9.2561195452  MEMB      49              0.0000000000
      4669        49  POPC      H4Y           -29.5534006048       26.6287744149        9.3237771839  MEMB      49              0.0000000000
      4670        49  POPC      C35           -29.6567697870       24.6377723358        8.7256424033  MEMB      49              0.0000000000
      4671        49  POPC      H5X           -29.1234647677       23.7342607089        9.0911201084  MEMB      49              0.0000000000
      4672        49  POPC      H5Y           -29.4098710470       24.6493857536        7.6424866837  MEMB      49              0.0000000000
      4673        49  POPC      C36           -31.1700206495       24.5002503519        8.8599400885  MEMB      49              0.0000000000
      4674        49  POPC      H6X           -31.7464045447       25.4487420432        8.9095970852  MEMB      49              0.0000000000
      4675        49  POPC      H6Y           -31.2719736638       24.0054497713        9.8494347166  MEMB      49              0.0000000000
      4676        49  POPC      C37           -31.8339648972       23.4839292132        8.0555991233  MEMB      49              0.0000000000
      4677        49  POPC      H7X           -31.0549612654       22.7680683368        7.7164555912  MEMB      49              0.0000000000
      4678        49  POPC      H7Y           -32.2471123873       23.9714652492        7.1467867396  MEMB      49              0.0000000000
      4679        49  POPC      C38           -33.0474968140       22.7842214435        8.8333318969  MEMB      49              0.0000000000
      4680        49  POPC      H8X           -33.7624728375       23.5586675008        9.1845634298  MEMB      49              0.0000000000
      4681        49  POPC      H8Y           -32.6723563698       22.1357037035        9.6537067632  MEMB      49              0.0000000000
      4682        49  POPC      C39           -33.8289643680       21.7670244336        7.8908647207  MEMB      49              0.0000000000
      4683        49  POPC      H9X           -34.5431089084       22.3320692346        7.2544352100  MEMB      49              0.0000000000
      4684        49  POPC      H9Y           -34.4100462899       21.2256803801        8.6677890662  MEMB      49              0.0000000000
      4685        49  POPC      C310          -32.8426470200       20.8958378080        7.1314948166  MEMB      49              0.0000000000
      4686        49  POPC      H10X          -31.9796703620       20.7110714283        7.8063679546  MEMB      49              0.0000000000
      4687        49  POPC      H10Y          -32.5020050681       21.3914024454        6.1973111537  MEMB      49              0.0000000000
      4688        49  POPC      C311          -33.3084322861       19.4750476298        6.8163782789  MEMB      49              0.0000000000
      4689        49  POPC      H11X          -34.0208138970       19.6163152152        5.9756182210  MEMB      49              0.0000000000
      4690        49  POPC      H11Y          -33.7740681951       18.9518249301        7.6787827426  MEMB      49              0.0000000000
      4691        49  POPC      C312          -32.1118217129       18.6269946739        6.3815260347  MEMB      49              0.0000000000
      4692        49  POPC      H12X          -32.3428980419       17.5463739148        6.2667041616  MEMB      49              0.0000000000
      4693        49  POPC      H12Y          -31.4652832395       18.8222180388        7.2636811164  MEMB      49              0.0000000000
      4694        49  POPC      C313          -31.3193545461       19.1899193765        5.1833649205  MEMB      49              0.0000000000
      4695        49  POPC      H13X          -30.4865747545       18.4759740947        5.0070671276  MEMB      49              0.0000000000
      4696        49  POPC      H13Y          -30.8624414996       20.1984705325        5.2748841128  MEMB      49              0.0000000000
      4697        49  POPC      C314          -32.0930312015       19.1242225582        3.8654632803  MEMB      49              0.0000000000
      4698        49  POPC      H14X          -33.1033562556       19.5668491793        3.9983010018  MEMB      49              0.0000000000
      4699        49  POPC      H14Y          -32.2052245782       18.1005211467        3.4486075934  MEMB      49              0.0000000000
      4700        49  POPC      C315          -31.4564040601       19.8838120308        2.6483732480  MEMB      49              0.0000000000
      4701        49  POPC      H15X          -31.1848511839       20.9135149720        2.9650627900  MEMB      49              0.0000000000
      4702        49  POPC      H15Y          -32.2437887239       19.9383718441        1.8664722829  MEMB      49              0.0000000000
      4703        49  POPC      C316          -30.1802271632       19.3014877784        2.1449243820  MEMB      49              0.0000000000
      4704        49  POPC      H16X          -30.5198561760       18.3689781947        1.6455250241  MEMB      49              0.0000000000
      4705        49  POPC      H16Y          -29.5181637955       18.9516996552        2.9656803005  MEMB      49              0.0000000000
      4706        49  POPC      H16Z          -29.6103097411       19.9143607888        1.4142369343  MEMB      49              0.0000000000
      4707        50  POPC      N             -43.7402737482       -9.8728937284       20.2931303120  MEMB      50              0.0000000000
      4708        50  POPC      C12           -43.4030050168       -9.0079272716       19.1432447724  MEMB      50              0.0000000000
      4709        50  POPC      H12A          -43.7510497017       -8.0226577356       19.4162081991  MEMB      50              0.0000000000
      4710        50  POPC      H12B          -43.9710361076       -9.3537477170       18.2922754386  MEMB      50              0.0000000000
      4711        50  POPC      C13           -42.8306360168       -9.7575468556       21.4596019358  MEMB      50              0.0000000000
      4712        50  POPC      H13A          -42.6106486672       -8.7085233110       21.5920973215  MEMB      50              0.0000000000
      4713        50  POPC      H13B          -43.2868397205      -10.1698542940       22.3474536474  MEMB      50              0.0000000000
      4714        50  POPC      H13C          -41.8762174282      -10.2565506304       21.3791012428  MEMB      50              0.0000000000
      4715        50  POPC      C14           -45.0793653087       -9.4394416457       20.8250689047  MEMB      50              0.0000000000
      4716        50  POPC      H14A          -45.7862878055       -9.7163984749       20.0569832118  MEMB      50              0.0000000000
      4717        50  POPC      H14B          -45.2401495767       -9.9644076589       21.7551005198  MEMB      50              0.0000000000
      4718        50  POPC      H14C          -44.9880483549       -8.3788200402       21.0071213743  MEMB      50              0.0000000000
      4719        50  POPC      C15           -43.7822296125      -11.3437318219       19.9058366375  MEMB      50              0.0000000000
      4720        50  POPC      H15A          -44.5396098253      -11.5773533551       19.1722182106  MEMB      50              0.0000000000
      4721        50  POPC      H15B          -43.9955310700      -11.8744641840       20.8219294040  MEMB      50              0.0000000000
      4722        50  POPC      H15C          -42.8070617128      -11.6033101000       19.5210423659  MEMB      50              0.0000000000
      4723        50  POPC      C11           -41.9535989888       -8.8228850365       18.7583361844  MEMB      50              0.0000000000
      4724        50  POPC      H11A          -41.5032678570       -8.3239803627       19.6429926139  MEMB      50              0.0000000000
      4725        50  POPC      H11B          -42.0100816921       -8.1035205689       17.9135607788  MEMB      50              0.0000000000
      4726        50  POPC      P             -39.8870557793      -10.1667676179       17.7518432453  MEMB      50              0.0000000000
      4727        50  POPC      O13           -39.3455385595      -11.5333953586       17.9005538932  MEMB      50              0.0000000000
      4728        50  POPC      O14           -38.9406628751       -9.0217567174       18.0921269485  MEMB      50              0.0000000000
      4729        50  POPC      O12           -41.2726117053      -10.0601000170       18.6265944807  MEMB      50              0.0000000000
      4730        50  POPC      O11           -40.4830526745       -9.9962838606       16.2436626914  MEMB      50              0.0000000000
      4731        50  POPC      C1            -41.4304723037      -11.0428741534       15.9876748875  MEMB      50              0.0000000000
      4732        50  POPC      HA            -42.2106643451      -11.1180531803       16.7750563493  MEMB      50              0.0000000000
      4733        50  POPC      HB            -40.8970367106      -12.0163335055       16.0339824827  MEMB      50              0.0000000000
      4734        50  POPC      C2            -42.1280532360      -10.9479508905       14.6044987894  MEMB      50              0.0000000000
      4735        50  POPC      HS            -42.4186260785      -11.9550800648       14.2362879276  MEMB      50              0.0000000000
      4736        50  POPC      O21           -41.3035065464      -10.2891807723       13.5903741933  MEMB      50              0.0000000000
      4737        50  POPC      C21           -40.3088383058      -11.0932912906       13.1678185206  MEMB      50              0.0000000000
      4738        50  POPC      O22           -40.2237488721      -12.3210477273       13.3037660474  MEMB      50              0.0000000000
      4739        50  POPC      C22           -39.2354947463      -10.3018337965       12.3987137131  MEMB      50              0.0000000000
      4740        50  POPC      H2R           -38.6110417534       -9.6880747389       13.0825848130  MEMB      50              0.0000000000
      4741        50  POPC      H2S           -39.7435050123       -9.6235568395       11.6802521833  MEMB      50              0.0000000000
      4742        50  POPC      C3            -43.4509748883      -10.1221520499       14.6603552032  MEMB      50              0.0000000000
      4743        50  POPC      HX            -43.1793701359       -9.0669433647       14.8773492070  MEMB      50              0.0000000000
      4744        50  POPC      HY            -44.0319429740      -10.4496751648       15.5489076388  MEMB      50              0.0000000000
      4745        50  POPC      O31           -44.3108035759      -10.2642470649       13.4609480890  MEMB      50              0.0000000000
      4746        50  POPC      C31           -44.1891215260       -9.3252644592       12.5485825749  MEMB      50              0.0000000000
      4747        50  POPC      O32           -43.5816474857       -8.2826272467       12.5834770926  MEMB      50              0.0000000000
      4748        50  POPC      C32           -45.0945071712       -9.7462774185       11.4103584609  MEMB      50              0.0000000000
      4749        50  POPC      H2X           -46.0212263541       -9.1343370925       11.4426353339  MEMB      50              0.0000000000
      4750        50  POPC      H2Y           -45.4175579007      -10.8059873749       11.4938690988  MEMB      50              0.0000000000
      4751        50  POPC      C23           -38.4280507510      -11.2057958517       11.4322864292  MEMB      50              0.0000000000
      4752        50  POPC      H3R           -37.9170190697      -11.8544692505       12.1755161580  MEMB      50              0.0000000000
      4753        50  POPC      H3S           -37.5311308098      -10.7070621369       11.0067049586  MEMB      50              0.0000000000
      4754        50  POPC      C24           -39.0721441918      -11.7643988135       10.1889825529  MEMB      50              0.0000000000
      4755        50  POPC      H4R           -39.4464846956      -10.9187613147        9.5732819615  MEMB      50              0.0000000000
      4756        50  POPC      H4S           -39.9308657720      -12.3677755114       10.5534752922  MEMB      50              0.0000000000
      4757        50  POPC      C25           -38.1638413037      -12.6286810436        9.3244323610  MEMB      50              0.0000000000
      4758        50  POPC      H5R           -37.8255722740      -13.5552078776        9.8357470722  MEMB      50              0.0000000000
      4759        50  POPC      H5S           -37.1869223053      -12.1002793674        9.2971927117  MEMB      50              0.0000000000
      4760        50  POPC      C26           -38.6784880935      -12.8927359943        7.9026884940  MEMB      50              0.0000000000
      4761        50  POPC      H6R           -38.0048518903      -13.6868676821        7.5155315312  MEMB      50              0.0000000000
      4762        50  POPC      H6S           -38.9630284331      -11.9775167391        7.3407885139  MEMB      50              0.0000000000
      4763        50  POPC      C27           -40.0836419769      -13.5750509697        7.7777040896  MEMB      50              0.0000000000
      4764        50  POPC      H7R           -40.7359374832      -12.8686919208        8.3343803909  MEMB      50              0.0000000000
      4765        50  POPC      H7S           -40.0791361152      -14.6160151216        8.1658978241  MEMB      50              0.0000000000
      4766        50  POPC      C28           -40.6968076588      -13.7049085676        6.3145599269  MEMB      50              0.0000000000
      4767        50  POPC      H8R           -40.9937552071      -12.6740635438        6.0255930789  MEMB      50              0.0000000000
      4768        50  POPC      H8S           -41.6417687013      -14.2838441714        6.3933205174  MEMB      50              0.0000000000
      4769        50  POPC      C29           -39.8217539832      -14.1958238173        5.2330224507  MEMB      50              0.0000000000
      4770        50  POPC      H91           -39.4669295264      -15.2228037158        5.4045211776  MEMB      50              0.0000000000
      4771        50  POPC      C210          -39.3197916713      -13.6046364364        4.0379533971  MEMB      50              0.0000000000
      4772        50  POPC      H101          -38.4486824664      -14.1552760518        3.6532916446  MEMB      50              0.0000000000
      4773        50  POPC      C211          -39.4541421382      -12.2390866606        3.3652508189  MEMB      50              0.0000000000
      4774        50  POPC      H11R          -40.1587594735      -11.5485343647        3.8761057955  MEMB      50              0.0000000000
      4775        50  POPC      H11S          -39.8519944136      -12.3700487077        2.3362305520  MEMB      50              0.0000000000
      4776        50  POPC      C212          -38.0700680662      -11.5090346177        3.2951977773  MEMB      50              0.0000000000
      4777        50  POPC      H12R          -37.2715255805      -12.1586857799        2.8773421997  MEMB      50              0.0000000000
      4778        50  POPC      H12S          -37.6282831297      -11.2108467222        4.2699953907  MEMB      50              0.0000000000
      4779        50  POPC      C213          -38.1544824527      -10.2577969001        2.3843779343  MEMB      50              0.0000000000
      4780        50  POPC      H13R          -37.1726039750       -9.7879119565        2.6067369229  MEMB      50              0.0000000000
      4781        50  POPC      H13S          -38.9557591455       -9.6321148980        2.8324833714  MEMB      50              0.0000000000
      4782        50  POPC      C214          -38.2741378265      -10.4767398157        0.7815807008  MEMB      50              0.0000000000
      4783        50  POPC      H14R          -39.2943729090      -10.6062117886        0.3612491784  MEMB      50              0.0000000000
      4784        50  POPC      H14S          -37.6959839077      -11.3756052963        0.4781008642  MEMB      50              0.0000000000
      4785        50  POPC      C215          -37.7030832753       -9.2172533505        0.0420345842  MEMB      50              0.0000000000
      4786        50  POPC      H15R          -37.0966724903       -9.5237046779       -0.8369845865  MEMB      50              0.0000000000
      4787        50  POPC      H15S          -36.9268445782       -8.7968993861        0.7166283968  MEMB      50              0.0000000000
      4788        50  POPC      C216          -38.7705326270       -8.1027017849       -0.0220848751  MEMB      50              0.0000000000
      4789        50  POPC      H16R          -38.9728948340       -7.5343366319        0.9108297647  MEMB      50              0.0000000000
      4790        50  POPC      H16S          -39.7385566927       -8.4465598134       -0.4451835499  MEMB      50              0.0000000000
      4791        50  POPC      C217          -38.3697895373       -6.9777580603       -1.0086324687  MEMB      50              0.0000000000
      4792        50  POPC      H17R          -39.2127370353       -6.2543144178       -1.0283753235  MEMB      50              0.0000000000
      4793        50  POPC      H17S          -38.1831037456       -7.3739214666       -2.0296744748  MEMB      50              0.0000000000
      4794        50  POPC      C218          -37.1963390892       -6.1665820766       -0.5363280949  MEMB      50              0.0000000000
      4795        50  POPC      H18R          -36.3177688245       -6.8443278885       -0.5919694727  MEMB      50              0.0000000000
      4796        50  POPC      H18S          -37.3106590457       -5.7226252861        0.4756771097  MEMB      50              0.0000000000
      4797        50  POPC      H18T          -37.1422616046       -5.2808695329       -1.2048420268  MEMB      50              0.0000000000
      4798        50  POPC      C33           -44.4154684246       -9.4887650284        9.9691424176  MEMB      50              0.0000000000
      4799        50  POPC      H3X           -44.0603199472       -8.4543361089        9.7738286845  MEMB      50              0.0000000000
      4800        50  POPC      H3Y           -45.2174932712       -9.5557039375        9.2032476406  MEMB      50              0.0000000000
      4801        50  POPC      C34           -43.2099488166      -10.3958746737        9.8997699369  MEMB      50              0.0000000000
      4802        50  POPC      H4X           -43.5713515394      -11.4201487536        9.6661637144  MEMB      50              0.0000000000
      4803        50  POPC      H4Y           -42.5600315933      -10.2972294936       10.7954245552  MEMB      50              0.0000000000
      4804        50  POPC      C35           -42.1666046540       -9.9966844330        8.8440288933  MEMB      50              0.0000000000
      4805        50  POPC      H5X           -41.4935249674      -10.8782142899        8.7793009456  MEMB      50              0.0000000000
      4806        50  POPC      H5Y           -41.6085022544       -9.1123815183        9.2193309576  MEMB      50              0.0000000000
      4807        50  POPC      C36           -42.6800595036       -9.6365672685        7.4877004325  MEMB      50              0.0000000000
      4808        50  POPC      H6X           -43.3036843803       -8.7269571494        7.6219470999  MEMB      50              0.0000000000
      4809        50  POPC      H6Y           -43.4710252773      -10.3740361979        7.2330763341  MEMB      50              0.0000000000
      4810        50  POPC      C37           -41.7171313806       -9.4612575350        6.3381135544  MEMB      50              0.0000000000
      4811        50  POPC      H7X           -41.3960906957      -10.4747955412        6.0156322485  MEMB      50              0.0000000000
      4812        50  POPC      H7Y           -40.8684240690       -8.8511178548        6.7146062865  MEMB      50              0.0000000000
      4813        50  POPC      C38           -42.2124172784       -8.6280001222        5.2342921583  MEMB      50              0.0000000000
      4814        50  POPC      H8X           -41.3448283831       -8.1875365226        4.6980064843  MEMB      50              0.0000000000
      4815        50  POPC      H8Y           -42.7517731163       -7.8228030338        5.7775002986  MEMB      50              0.0000000000
      4816        50  POPC      C39           -43.1871553066       -9.3477856804        4.1952213731  MEMB      50              0.0000000000
      4817        50  POPC      H9X           -44.0893836296       -9.7511359358        4.7027779605  MEMB      50              0.0000000000
      4818        50  POPC      H9Y           -42.4940398667      -10.1241882739        3.8064919718  MEMB      50              0.0000000000
      4819        50  POPC      C310          -43.4386921741       -8.3367877377        2.9827551390  MEMB      50              0.0000000000
      4820        50  POPC      H10X          -42.4721279982       -8.2090284332        2.4500703441  MEMB      50              0.0000000000
      4821        50  POPC      H10Y          -43.9352430631       -7.4157225927        3.3561149797  MEMB      50              0.0000000000
      4822        50  POPC      C311          -44.4707405064       -8.8380339173        1.9460833471  MEMB      50              0.0000000000
      4823        50  POPC      H11X          -44.6963459036       -8.2174657371        1.0525966209  MEMB      50              0.0000000000
      4824        50  POPC      H11Y          -45.4190775433       -8.9292993026        2.5176149875  MEMB      50              0.0000000000
      4825        50  POPC      C312          -44.1218918131      -10.2925319963        1.3925370934  MEMB      50              0.0000000000
      4826        50  POPC      H12X          -44.9909911146      -10.8927999372        1.7370146874  MEMB      50              0.0000000000
      4827        50  POPC      H12Y          -43.2602730792      -10.6900158689        1.9704137587  MEMB      50              0.0000000000
      4828        50  POPC      C313          -43.9975312836      -10.3006136465       -0.1311104074  MEMB      50              0.0000000000
      4829        50  POPC      H13X          -43.0295985826       -9.8425908008       -0.4271567925  MEMB      50              0.0000000000
      4830        50  POPC      H13Y          -44.8223779860       -9.8109628530       -0.6916375713  MEMB      50              0.0000000000
      4831        50  POPC      C314          -43.9756073325      -11.7485507669       -0.6213861736  MEMB      50              0.0000000000
      4832        50  POPC      H14X          -45.0166151986      -12.1110659445       -0.4827978474  MEMB      50              0.0000000000
      4833        50  POPC      H14Y          -43.2875614500      -12.4196973023       -0.0641831609  MEMB      50              0.0000000000
      4834        50  POPC      C315          -43.6997181196      -11.8790681872       -2.1066267092  MEMB      50              0.0000000000
      4835        50  POPC      H15X          -42.6816327135      -11.4670813907       -2.2742265375  MEMB      50              0.0000000000
      4836        50  POPC      H15Y          -44.5044209033      -11.3270940902       -2.6377561470  MEMB      50              0.0000000000
      4837        50  POPC      C316          -43.7923015850      -13.3773295123       -2.5551026053  MEMB      50              0.0000000000
      4838        50  POPC      H16X          -44.5455303141      -13.9305811945       -1.9543705830  MEMB      50              0.0000000000
      4839        50  POPC      H16Y          -42.8432321477      -13.9058410091       -2.3221574857  MEMB      50              0.0000000000
      4840        50  POPC      H16Z          -43.9987384801      -13.3518250169       -3.6464583175  MEMB      50              0.0000000000
      4841        51  POPC      N             -16.5997303331       32.8275263933       20.8637775675  MEMB      51              0.0000000000
      4842        51  POPC      C12           -17.2040242384       31.5173177693       20.2602854285  MEMB      51              0.0000000000
      4843        51  POPC      H12A          -18.2839816474       31.5255189186       20.2552928266  MEMB      51              0.0000000000
      4844        51  POPC      H12B          -16.9277233791       30.7066180892       20.9181790593  MEMB      51              0.0000000000
      4845        51  POPC      C13           -16.8661639930       34.0168573270       19.9710349814  MEMB      51              0.0000000000
      4846        51  POPC      H13A          -17.9153660512       34.2044133305       19.7966857287  MEMB      51              0.0000000000
      4847        51  POPC      H13B          -16.4569315661       34.9377826910       20.3593975098  MEMB      51              0.0000000000
      4848        51  POPC      H13C          -16.4576067718       33.8582358290       18.9839583765  MEMB      51              0.0000000000
      4849        51  POPC      C14           -17.2561247108       33.1628588911       22.1600689000  MEMB      51              0.0000000000
      4850        51  POPC      H14A          -16.9059926842       32.4096532475       22.8503505791  MEMB      51              0.0000000000
      4851        51  POPC      H14B          -16.8298854295       34.0400926705       22.6239448580  MEMB      51              0.0000000000
      4852        51  POPC      H14C          -18.3197089233       33.3203573622       22.0581742021  MEMB      51              0.0000000000
      4853        51  POPC      C15           -15.1142158691       32.7001513196       21.0595409405  MEMB      51              0.0000000000
      4854        51  POPC      H15A          -14.9576075046       32.0065921047       21.8724673921  MEMB      51              0.0000000000
      4855        51  POPC      H15B          -14.7134347965       33.6002946536       21.5017137420  MEMB      51              0.0000000000
      4856        51  POPC      H15C          -14.5601064206       32.3874648482       20.1868499203  MEMB      51              0.0000000000
      4857        51  POPC      C11           -16.9054196702       31.1093661236       18.8385612373  MEMB      51              0.0000000000
      4858        51  POPC      H11A          -17.4308152293       31.8485140120       18.1967350316  MEMB      51              0.0000000000
      4859        51  POPC      H11B          -17.4257981707       30.1509825286       18.6263625933  MEMB      51              0.0000000000
      4860        51  POPC      P             -15.2440461454       30.3969899721       17.1132744802  MEMB      51              0.0000000000
      4861        51  POPC      O13           -16.5201108619       30.0830032279       16.3962269423  MEMB      51              0.0000000000
      4862        51  POPC      O14           -14.2724805801       29.2905456216       17.4161252234  MEMB      51              0.0000000000
      4863        51  POPC      O12           -15.5448287736       31.0532056173       18.5282802253  MEMB      51              0.0000000000
      4864        51  POPC      O11           -14.5635663220       31.6302920387       16.3928241200  MEMB      51              0.0000000000
      4865        51  POPC      C1            -13.5731838923       32.4380773591       17.1213055436  MEMB      51              0.0000000000
      4866        51  POPC      HA            -13.1884883825       31.9571409196       18.0459841406  MEMB      51              0.0000000000
      4867        51  POPC      HB            -14.0532709974       33.3626651952       17.5072780005  MEMB      51              0.0000000000
      4868        51  POPC      C2            -12.3204334182       32.6435373045       16.2251684886  MEMB      51              0.0000000000
      4869        51  POPC      HS            -11.8044222932       33.5413274974       16.6276931425  MEMB      51              0.0000000000
      4870        51  POPC      O21           -12.6247971668       32.8148410063       14.9324285177  MEMB      51              0.0000000000
      4871        51  POPC      C21           -13.4558712241       33.7868481241       14.6622415004  MEMB      51              0.0000000000
      4872        51  POPC      O22           -13.7784876792       34.6774519951       15.4037353611  MEMB      51              0.0000000000
      4873        51  POPC      C22           -13.8619316646       33.7114540796       13.1167253776  MEMB      51              0.0000000000
      4874        51  POPC      H2R           -13.7752852263       32.6250803878       12.9008422469  MEMB      51              0.0000000000
      4875        51  POPC      H2S           -13.1557326286       34.3822752841       12.5823072732  MEMB      51              0.0000000000
      4876        51  POPC      C3            -11.3947904109       31.3142100045       16.2007521015  MEMB      51              0.0000000000
      4877        51  POPC      HX            -11.0557194358       31.0435057989       17.2235283002  MEMB      51              0.0000000000
      4878        51  POPC      HY            -10.5104980819       31.5228367973       15.5613591710  MEMB      51              0.0000000000
      4879        51  POPC      O31           -12.1086148032       30.2103715233       15.6434757270  MEMB      51              0.0000000000
      4880        51  POPC      C31           -11.9197859812       29.8796508554       14.4095805766  MEMB      51              0.0000000000
      4881        51  POPC      O32           -11.0756674403       30.3299955182       13.6463615303  MEMB      51              0.0000000000
      4882        51  POPC      C32           -12.7724396844       28.6363504882       13.9734199328  MEMB      51              0.0000000000
      4883        51  POPC      H2X           -13.8435227935       28.9273678625       14.0225202098  MEMB      51              0.0000000000
      4884        51  POPC      H2Y           -12.6999717650       27.7958452922       14.6963448252  MEMB      51              0.0000000000
      4885        51  POPC      C23           -15.3155441315       34.2222625431       12.7761193993  MEMB      51              0.0000000000
      4886        51  POPC      H3R           -15.2193850170       34.3672048262       11.6788195588  MEMB      51              0.0000000000
      4887        51  POPC      H3S           -15.2852283763       35.2534439509       13.1885104371  MEMB      51              0.0000000000
      4888        51  POPC      C24           -16.4447084792       33.3150170005       13.2571114312  MEMB      51              0.0000000000
      4889        51  POPC      H4R           -17.4099350188       33.8167533933       13.0314584614  MEMB      51              0.0000000000
      4890        51  POPC      H4S           -16.4029941955       33.2889448002       14.3670220982  MEMB      51              0.0000000000
      4891        51  POPC      C25           -16.3851266412       31.8893253139       12.7325565546  MEMB      51              0.0000000000
      4892        51  POPC      H5R           -15.5233302496       31.2873389944       13.0920571855  MEMB      51              0.0000000000
      4893        51  POPC      H5S           -16.2626307567       31.9349230996       11.6292723972  MEMB      51              0.0000000000
      4894        51  POPC      C26           -17.6396430341       31.0339278762       13.2037283348  MEMB      51              0.0000000000
      4895        51  POPC      H6R           -18.4721118782       31.5760993331       12.7063685605  MEMB      51              0.0000000000
      4896        51  POPC      H6S           -17.7554330500       31.0590939427       14.3083913367  MEMB      51              0.0000000000
      4897        51  POPC      C27           -17.6136941595       29.5313411709       12.7398443540  MEMB      51              0.0000000000
      4898        51  POPC      H7R           -18.5813048622       29.0725225380       13.0357099376  MEMB      51              0.0000000000
      4899        51  POPC      H7S           -16.8416666284       29.0446940624       13.3734605163  MEMB      51              0.0000000000
      4900        51  POPC      C28           -17.3820240752       29.2274810719       11.2730389765  MEMB      51              0.0000000000
      4901        51  POPC      H8R           -17.4291827260       28.1227225450       11.1653095960  MEMB      51              0.0000000000
      4902        51  POPC      H8S           -16.3291386189       29.4546244825       11.0007173140  MEMB      51              0.0000000000
      4903        51  POPC      C29           -18.4862213542       29.6253024122       10.3143158485  MEMB      51              0.0000000000
      4904        51  POPC      H91           -19.3189013491       28.9068085569       10.2940614257  MEMB      51              0.0000000000
      4905        51  POPC      C210          -18.4185188344       30.5437170793        9.3224818046  MEMB      51              0.0000000000
      4906        51  POPC      H101          -19.3580065616       30.8982748139        8.8734257997  MEMB      51              0.0000000000
      4907        51  POPC      C211          -17.2325075481       31.3087226150        8.8602091518  MEMB      51              0.0000000000
      4908        51  POPC      H11R          -16.4121418184       31.2319650496        9.6054802969  MEMB      51              0.0000000000
      4909        51  POPC      H11S          -17.5054169184       32.3847713761        8.8159311070  MEMB      51              0.0000000000
      4910        51  POPC      C212          -16.6670315329       30.7949519553        7.4384619592  MEMB      51              0.0000000000
      4911        51  POPC      H12R          -15.7344561573       31.3449244975        7.1891546974  MEMB      51              0.0000000000
      4912        51  POPC      H12S          -17.3483995537       31.1947033231        6.6572728947  MEMB      51              0.0000000000
      4913        51  POPC      C213          -16.5534098344       29.2515781634        7.4304419317  MEMB      51              0.0000000000
      4914        51  POPC      H13R          -17.4865049592       28.6487370368        7.4458291611  MEMB      51              0.0000000000
      4915        51  POPC      H13S          -15.8884962285       28.9606518216        8.2716153144  MEMB      51              0.0000000000
      4916        51  POPC      C214          -15.8244584928       28.8028150150        6.1792112662  MEMB      51              0.0000000000
      4917        51  POPC      H14R          -15.6453125088       27.7071783362        6.2217329907  MEMB      51              0.0000000000
      4918        51  POPC      H14S          -14.8004212547       29.2257644478        6.0968552761  MEMB      51              0.0000000000
      4919        51  POPC      C215          -16.5554120065       29.0903771812        4.8767060061  MEMB      51              0.0000000000
      4920        51  POPC      H15R          -16.4819512658       30.1758524198        4.6516108605  MEMB      51              0.0000000000
      4921        51  POPC      H15S          -17.6185295580       28.8611331469        5.1037497641  MEMB      51              0.0000000000
      4922        51  POPC      C216          -16.0340015202       28.4217001442        3.5977993891  MEMB      51              0.0000000000
      4923        51  POPC      H16R          -15.9708510147       27.3227156503        3.7480196924  MEMB      51              0.0000000000
      4924        51  POPC      H16S          -15.0674555483       28.9155766461        3.3607429275  MEMB      51              0.0000000000
      4925        51  POPC      C217          -16.9711011021       28.7171358133        2.3785377939  MEMB      51              0.0000000000
      4926        51  POPC      H17R          -16.3189538634       28.4222330927        1.5287970462  MEMB      51              0.0000000000
      4927        51  POPC      H17S          -17.2146175635       29.7986923872        2.3060387105  MEMB      51              0.0000000000
      4928        51  POPC      C218          -18.2901787181       27.9183359901        2.3661915929  MEMB      51              0.0000000000
      4929        51  POPC      H18R          -18.8398120481       28.0038194307        3.3279170174  MEMB      51              0.0000000000
      4930        51  POPC      H18S          -18.0690896191       26.8706432011        2.0699135767  MEMB      51              0.0000000000
      4931        51  POPC      H18T          -19.0388102161       28.3833816402        1.6897259570  MEMB      51              0.0000000000
      4932        51  POPC      C33           -12.5181739885       28.2397646525       12.5510927841  MEMB      51              0.0000000000
      4933        51  POPC      H3X           -12.7980405148       27.1691130692       12.4526007039  MEMB      51              0.0000000000
      4934        51  POPC      H3Y           -11.4603946427       28.2028941872       12.2133582272  MEMB      51              0.0000000000
      4935        51  POPC      C34           -13.2752344933       29.0915833405       11.4767329323  MEMB      51              0.0000000000
      4936        51  POPC      H4X           -14.2900589149       29.2663266238       11.8937668018  MEMB      51              0.0000000000
      4937        51  POPC      H4Y           -13.3569084676       28.3904864279       10.6187625612  MEMB      51              0.0000000000
      4938        51  POPC      C35           -12.6717417166       30.3745558516       10.9618718102  MEMB      51              0.0000000000
      4939        51  POPC      H5X           -11.6327141331       30.1892122944       10.6148975319  MEMB      51              0.0000000000
      4940        51  POPC      H5Y           -12.5816631759       31.1585645201       11.7438800820  MEMB      51              0.0000000000
      4941        51  POPC      C36           -13.4339951549       31.0778548186        9.8353478605  MEMB      51              0.0000000000
      4942        51  POPC      H6X           -14.4332422107       31.4409943171       10.1577700674  MEMB      51              0.0000000000
      4943        51  POPC      H6Y           -13.5322841957       30.3035108495        9.0447456402  MEMB      51              0.0000000000
      4944        51  POPC      C37           -12.6305455387       32.3015799605        9.2320687917  MEMB      51              0.0000000000
      4945        51  POPC      H7X           -11.6242181941       31.9019813076        8.9831773274  MEMB      51              0.0000000000
      4946        51  POPC      H7Y           -12.5831735951       33.0749891614       10.0282569811  MEMB      51              0.0000000000
      4947        51  POPC      C38           -13.1577264699       33.0144770726        7.9846875366  MEMB      51              0.0000000000
      4948        51  POPC      H8X           -12.6649948241       34.0052861806        7.8855197074  MEMB      51              0.0000000000
      4949        51  POPC      H8Y           -14.2613230391       33.0290609152        8.1118991715  MEMB      51              0.0000000000
      4950        51  POPC      C39           -12.8394525478       32.2483040857        6.7169144964  MEMB      51              0.0000000000
      4951        51  POPC      H9X           -13.4797714452       31.3423095565        6.7759650123  MEMB      51              0.0000000000
      4952        51  POPC      H9Y           -11.7709678751       31.9859570921        6.5625272400  MEMB      51              0.0000000000
      4953        51  POPC      C310          -13.2661632996       33.0399794011        5.4278022350  MEMB      51              0.0000000000
      4954        51  POPC      H10X          -13.3062938376       32.3761728438        4.5378180261  MEMB      51              0.0000000000
      4955        51  POPC      H10Y          -12.4536356525       33.7723412434        5.2334667166  MEMB      51              0.0000000000
      4956        51  POPC      C311          -14.6020955507       33.7570714793        5.5693701263  MEMB      51              0.0000000000
      4957        51  POPC      H11X          -14.5317866081       34.4205220151        6.4577453370  MEMB      51              0.0000000000
      4958        51  POPC      H11Y          -15.4559363661       33.0568193860        5.6915323175  MEMB      51              0.0000000000
      4959        51  POPC      C312          -15.0188547033       34.7291760675        4.4049799956  MEMB      51              0.0000000000
      4960        51  POPC      H12X          -14.2477020636       35.4176347779        3.9979548011  MEMB      51              0.0000000000
      4961        51  POPC      H12Y          -15.7354186575       35.4631222431        4.8318052135  MEMB      51              0.0000000000
      4962        51  POPC      C313          -15.5760855134       33.9169055787        3.2061949163  MEMB      51              0.0000000000
      4963        51  POPC      H13X          -16.3557681884       33.1978144932        3.5368361963  MEMB      51              0.0000000000
      4964        51  POPC      H13Y          -14.8465195344       33.1417007296        2.8882141508  MEMB      51              0.0000000000
      4965        51  POPC      C314          -16.0271081845       34.7382802346        2.0248164595  MEMB      51              0.0000000000
      4966        51  POPC      H14X          -16.7352267910       35.4929670714        2.4289660275  MEMB      51              0.0000000000
      4967        51  POPC      H14Y          -16.6000953430       34.2103384136        1.2328048731  MEMB      51              0.0000000000
      4968        51  POPC      C315          -14.9935143219       35.4301324795        1.1199422005  MEMB      51              0.0000000000
      4969        51  POPC      H15X          -14.7469600726       36.3665483233        1.6646044938  MEMB      51              0.0000000000
      4970        51  POPC      H15Y          -15.4753714485       35.8019234921        0.1904754679  MEMB      51              0.0000000000
      4971        51  POPC      C316          -13.7943812796       34.5769157037        0.7570442631  MEMB      51              0.0000000000
      4972        51  POPC      H16X          -14.0900441799       33.5063030868        0.7833746064  MEMB      51              0.0000000000
      4973        51  POPC      H16Y          -13.0080970458       34.7716982808        1.5173982059  MEMB      51              0.0000000000
      4974        51  POPC      H16Z          -13.2951039845       34.8440834522       -0.1988142634  MEMB      51              0.0000000000
      4975        52  POPC      N             -11.4610496459       39.6969335359       20.7049998564  MEMB      52              0.0000000000
      4976        52  POPC      C12           -12.9497743567       39.8096624265       20.9419592711  MEMB      52              0.0000000000
      4977        52  POPC      H12A          -13.2362258078       40.6785857779       21.5158215839  MEMB      52              0.0000000000
      4978        52  POPC      H12B          -13.3491886147       38.9850155134       21.5136459998  MEMB      52              0.0000000000
      4979        52  POPC      C13           -11.1685740285       38.3618651343       20.0843561587  MEMB      52              0.0000000000
      4980        52  POPC      H13A          -10.1516371456       38.3522620662       19.7208359115  MEMB      52              0.0000000000
      4981        52  POPC      H13B          -11.4354271085       37.5828693359       20.7831801110  MEMB      52              0.0000000000
      4982        52  POPC      H13C          -11.7777477632       38.2777568214       19.1965311568  MEMB      52              0.0000000000
      4983        52  POPC      C14           -10.7412410332       40.7770615835       19.9242617799  MEMB      52              0.0000000000
      4984        52  POPC      H14A          -10.7740125208       41.7700015326       20.3478138308  MEMB      52              0.0000000000
      4985        52  POPC      H14B           -9.6931277141       40.5265269405       19.8529120978  MEMB      52              0.0000000000
      4986        52  POPC      H14C          -11.1468106146       40.6606285531       18.9301005012  MEMB      52              0.0000000000
      4987        52  POPC      C15           -10.8643062070       39.7724008483       22.0879137364  MEMB      52              0.0000000000
      4988        52  POPC      H15A           -9.7876119124       39.8543801917       22.0676966302  MEMB      52              0.0000000000
      4989        52  POPC      H15B          -11.2817527176       39.0382839732       22.7611229193  MEMB      52              0.0000000000
      4990        52  POPC      H15C          -11.1491590575       40.7065794936       22.5489660137  MEMB      52              0.0000000000
      4991        52  POPC      C11           -13.9390020415       39.8127271488       19.6823758817  MEMB      52              0.0000000000
      4992        52  POPC      H11A          -14.7107156229       40.5644925411       19.9537206115  MEMB      52              0.0000000000
      4993        52  POPC      H11B          -14.4451922069       38.8253095813       19.6267057443  MEMB      52              0.0000000000
      4994        52  POPC      P             -13.6473437396       39.5113550651       17.1092018487  MEMB      52              0.0000000000
      4995        52  POPC      O13           -14.9520488637       40.0988012967       16.6670095584  MEMB      52              0.0000000000
      4996        52  POPC      O14           -13.7995907943       38.0512660488       17.1861076954  MEMB      52              0.0000000000
      4997        52  POPC      O12           -13.2289490270       40.1435922126       18.5427771782  MEMB      52              0.0000000000
      4998        52  POPC      O11           -12.5096283626       39.9287228990       16.0690370316  MEMB      52              0.0000000000
      4999        52  POPC      C1            -11.1926794739       40.2039773460       16.5324684262  MEMB      52              0.0000000000
      5000        52  POPC      HA            -10.7615741511       39.4149978343       17.1851403409  MEMB      52              0.0000000000
      5001        52  POPC      HB            -11.2137080681       41.1794487820       17.0638200327  MEMB      52              0.0000000000
      5002        52  POPC      C2            -10.3347515868       40.2664175224       15.2946565885  MEMB      52              0.0000000000
      5003        52  POPC      HS             -9.2763658890       40.5563226783       15.4681372144  MEMB      52              0.0000000000
      5004        52  POPC      O21           -10.9074146251       41.2102603387       14.3831379663  MEMB      52              0.0000000000
      5005        52  POPC      C21           -10.7402326658       42.5057269804       14.5718605605  MEMB      52              0.0000000000
      5006        52  POPC      O22           -10.2233614464       42.9689581505       15.5265290899  MEMB      52              0.0000000000
      5007        52  POPC      C22           -11.3493719386       43.2810585111       13.3868860541  MEMB      52              0.0000000000
      5008        52  POPC      H2R           -10.9251808558       44.3069686361       13.3433999076  MEMB      52              0.0000000000
      5009        52  POPC      H2S           -12.4549598250       43.1926643637       13.4515599543  MEMB      52              0.0000000000
      5010        52  POPC      C3            -10.0413330999       38.9299229942       14.4453637870  MEMB      52              0.0000000000
      5011        52  POPC      HX             -9.3275921311       38.2819523972       14.9976579538  MEMB      52              0.0000000000
      5012        52  POPC      HY             -9.5100200526       39.2593297039       13.5269309679  MEMB      52              0.0000000000
      5013        52  POPC      O31           -11.3386901272       38.3142621533       14.1607384627  MEMB      52              0.0000000000
      5014        52  POPC      C31           -11.5995052019       37.0754952477       14.6149997759  MEMB      52              0.0000000000
      5015        52  POPC      O32           -10.8041098891       36.4536174539       15.3389257455  MEMB      52              0.0000000000
      5016        52  POPC      C32           -12.9631154254       36.6433405162       14.1358922745  MEMB      52              0.0000000000
      5017        52  POPC      H2X           -13.7109376532       36.6628426250       14.9572949375  MEMB      52              0.0000000000
      5018        52  POPC      H2Y           -13.0187830608       35.5555785267       13.9168118302  MEMB      52              0.0000000000
      5019        52  POPC      C23           -10.8604358653       42.6085479972       12.0110030365  MEMB      52              0.0000000000
      5020        52  POPC      H3R           -11.4095966402       41.6561317605       11.8508570388  MEMB      52              0.0000000000
      5021        52  POPC      H3S            -9.7546686194       42.5014142226       11.9999491549  MEMB      52              0.0000000000
      5022        52  POPC      C24           -11.0206210493       43.5889474329       10.8416043607  MEMB      52              0.0000000000
      5023        52  POPC      H4R           -10.4307991105       44.4768065591       11.1548728520  MEMB      52              0.0000000000
      5024        52  POPC      H4S           -12.0358830749       43.8818078482       10.4983885043  MEMB      52              0.0000000000
      5025        52  POPC      C25           -10.5017552398       43.0233866709        9.4585098970  MEMB      52              0.0000000000
      5026        52  POPC      H5R            -9.5490322504       42.4643499811        9.5773286438  MEMB      52              0.0000000000
      5027        52  POPC      H5S           -10.3450886230       43.8945715245        8.7870837503  MEMB      52              0.0000000000
      5028        52  POPC      C26           -11.4646226594       42.0758923225        8.7523571870  MEMB      52              0.0000000000
      5029        52  POPC      H6R           -12.4209271574       42.6153493322        8.5826847002  MEMB      52              0.0000000000
      5030        52  POPC      H6S           -11.7066360157       41.2858258564        9.4950181322  MEMB      52              0.0000000000
      5031        52  POPC      C27           -11.0517307594       41.5084587758        7.3745744280  MEMB      52              0.0000000000
      5032        52  POPC      H7R           -10.7962042713       42.3717135149        6.7235612572  MEMB      52              0.0000000000
      5033        52  POPC      H7S           -11.8943487686       40.9679077767        6.8927860127  MEMB      52              0.0000000000
      5034        52  POPC      C28            -9.7368376654       40.7140716418        7.3823106883  MEMB      52              0.0000000000
      5035        52  POPC      H8R            -8.9477007637       41.4535262842        7.6368507481  MEMB      52              0.0000000000
      5036        52  POPC      H8S            -9.4435461620       40.4052582500        6.3561845362  MEMB      52              0.0000000000
      5037        52  POPC      C29            -9.7559808488       39.5649264948        8.4340398106  MEMB      52              0.0000000000
      5038        52  POPC      H91            -9.7911462529       39.9157489261        9.4760030138  MEMB      52              0.0000000000
      5039        52  POPC      C210           -9.8352100400       38.2854898767        8.0663006293  MEMB      52              0.0000000000
      5040        52  POPC      H101           -9.8418608787       37.5353900491        8.8708537808  MEMB      52              0.0000000000
      5041        52  POPC      C211           -9.9832864872       37.6515833468        6.6620533158  MEMB      52              0.0000000000
      5042        52  POPC      H11R           -9.7454827393       36.5698602171        6.7494913466  MEMB      52              0.0000000000
      5043        52  POPC      H11S           -9.2582910767       38.0820184282        5.9385702076  MEMB      52              0.0000000000
      5044        52  POPC      C212          -11.3939712206       37.4908188427        6.1535002060  MEMB      52              0.0000000000
      5045        52  POPC      H12R          -11.8144365046       38.4999591581        5.9555967994  MEMB      52              0.0000000000
      5046        52  POPC      H12S          -12.0347865808       36.8922272778        6.8356765031  MEMB      52              0.0000000000
      5047        52  POPC      C213          -11.4912312016       36.7966414723        4.7033230275  MEMB      52              0.0000000000
      5048        52  POPC      H13R          -11.0836067695       35.7807808908        4.8935613991  MEMB      52              0.0000000000
      5049        52  POPC      H13S          -10.7155052295       37.2689445003        4.0634015321  MEMB      52              0.0000000000
      5050        52  POPC      C214          -12.9264698026       36.6862307765        4.1390488252  MEMB      52              0.0000000000
      5051        52  POPC      H14R          -13.5518195993       37.5544129474        4.4382452042  MEMB      52              0.0000000000
      5052        52  POPC      H14S          -13.4325231297       35.7664723998        4.5027455928  MEMB      52              0.0000000000
      5053        52  POPC      C215          -12.9093691711       36.7380877718        2.5649708714  MEMB      52              0.0000000000
      5054        52  POPC      H15R          -12.1628629283       36.0285218174        2.1483609717  MEMB      52              0.0000000000
      5055        52  POPC      H15S          -12.6255695864       37.7288041116        2.1499296592  MEMB      52              0.0000000000
      5056        52  POPC      C216          -14.2849402335       36.4881739222        1.8851323288  MEMB      52              0.0000000000
      5057        52  POPC      H16R          -15.0568016344       37.2080515053        2.2320138190  MEMB      52              0.0000000000
      5058        52  POPC      H16S          -14.5871852559       35.4363071369        2.0762993668  MEMB      52              0.0000000000
      5059        52  POPC      C217          -14.2487496931       36.6846565191        0.3107181169  MEMB      52              0.0000000000
      5060        52  POPC      H17R          -15.1976393010       36.1899675403        0.0120354393  MEMB      52              0.0000000000
      5061        52  POPC      H17S          -13.3737323050       36.1065494073       -0.0559650732  MEMB      52              0.0000000000
      5062        52  POPC      C218          -14.0649560589       38.1096971743       -0.1880089546  MEMB      52              0.0000000000
      5063        52  POPC      H18R          -14.1490040728       38.1326515018       -1.2955879193  MEMB      52              0.0000000000
      5064        52  POPC      H18S          -13.0829940836       38.5323576500        0.1143652363  MEMB      52              0.0000000000
      5065        52  POPC      H18T          -14.8971637482       38.8052682833        0.0526825909  MEMB      52              0.0000000000
      5066        52  POPC      C33           -13.4587869653       37.4812259730       12.8724818140  MEMB      52              0.0000000000
      5067        52  POPC      H3X           -12.6633465198       37.3212586933       12.1135311213  MEMB      52              0.0000000000
      5068        52  POPC      H3Y           -13.4466978616       38.5335488308       13.2285598680  MEMB      52              0.0000000000
      5069        52  POPC      C34           -14.9004341175       36.9917890963       12.4739705733  MEMB      52              0.0000000000
      5070        52  POPC      H4X           -15.6138597235       36.9585657867       13.3249937984  MEMB      52              0.0000000000
      5071        52  POPC      H4Y           -14.7712095645       35.9317080793       12.1676209631  MEMB      52              0.0000000000
      5072        52  POPC      C35           -15.3550092515       37.8303427916       11.3508495168  MEMB      52              0.0000000000
      5073        52  POPC      H5X           -15.6354626035       38.8586309725       11.6643629644  MEMB      52              0.0000000000
      5074        52  POPC      H5Y           -16.2618046327       37.3896638488       10.8841107948  MEMB      52              0.0000000000
      5075        52  POPC      C36           -14.4302229723       37.8621937240       10.0495211999  MEMB      52              0.0000000000
      5076        52  POPC      H6X           -14.0890702071       36.8399693591        9.7793474777  MEMB      52              0.0000000000
      5077        52  POPC      H6Y           -13.5441823082       38.5041798789       10.2421518246  MEMB      52              0.0000000000
      5078        52  POPC      C37           -15.1078880852       38.3811954912        8.7645460297  MEMB      52              0.0000000000
      5079        52  POPC      H7X           -15.9363819988       37.7190292245        8.4337064887  MEMB      52              0.0000000000
      5080        52  POPC      H7Y           -14.3311590629       38.4188021984        7.9710735799  MEMB      52              0.0000000000
      5081        52  POPC      C38           -15.6491401166       39.8133015083        8.9581762733  MEMB      52              0.0000000000
      5082        52  POPC      H8X           -14.7555674633       40.3218191202        9.3791967159  MEMB      52              0.0000000000
      5083        52  POPC      H8Y           -16.5402158399       39.6755256362        9.6072706526  MEMB      52              0.0000000000
      5084        52  POPC      C39           -16.0930102428       40.5389285804        7.6956455842  MEMB      52              0.0000000000
      5085        52  POPC      H9X           -16.6178806131       41.3735702851        8.2077056706  MEMB      52              0.0000000000
      5086        52  POPC      H9Y           -16.8329885485       40.0161313081        7.0526560036  MEMB      52              0.0000000000
      5087        52  POPC      C310          -14.9850598377       41.1854272025        6.8484377302  MEMB      52              0.0000000000
      5088        52  POPC      H10X          -14.2074850766       40.4187159639        6.6438591077  MEMB      52              0.0000000000
      5089        52  POPC      H10Y          -14.5002002018       41.9933503972        7.4370734534  MEMB      52              0.0000000000
      5090        52  POPC      C311          -15.5328916113       41.7973553150        5.5592591437  MEMB      52              0.0000000000
      5091        52  POPC      H11X          -16.2735771870       42.5922236164        5.7914019416  MEMB      52              0.0000000000
      5092        52  POPC      H11Y          -16.0867078982       41.1067937744        4.8878929343  MEMB      52              0.0000000000
      5093        52  POPC      C312          -14.3765490576       42.3650172178        4.6972914141  MEMB      52              0.0000000000
      5094        52  POPC      H12X          -13.8930708860       43.2320425874        5.1961264555  MEMB      52              0.0000000000
      5095        52  POPC      H12Y          -14.9511363981       42.6526775295        3.7909678414  MEMB      52              0.0000000000
      5096        52  POPC      C313          -13.5254652075       41.3518236862        4.0663698370  MEMB      52              0.0000000000
      5097        52  POPC      H13X          -14.1258766186       40.4517292346        3.8140665893  MEMB      52              0.0000000000
      5098        52  POPC      H13Y          -12.7224194219       41.0901131769        4.7881355519  MEMB      52              0.0000000000
      5099        52  POPC      C314          -12.7550749853       41.9587794359        2.8733712610  MEMB      52              0.0000000000
      5100        52  POPC      H14X          -12.1062256185       42.8167831935        3.1511206697  MEMB      52              0.0000000000
      5101        52  POPC      H14Y          -13.4098682025       42.3341892350        2.0581201399  MEMB      52              0.0000000000
      5102        52  POPC      C315          -11.9375634429       40.8880296368        2.1697164109  MEMB      52              0.0000000000
      5103        52  POPC      H15X          -11.5163011800       41.2770209883        1.2181168513  MEMB      52              0.0000000000
      5104        52  POPC      H15Y          -12.5505629526       39.9919095131        1.9340882692  MEMB      52              0.0000000000
      5105        52  POPC      C316          -10.7914919675       40.2866260993        3.0268641519  MEMB      52              0.0000000000
      5106        52  POPC      H16X           -9.9879900396       39.8259664976        2.4132689364  MEMB      52              0.0000000000
      5107        52  POPC      H16Y          -11.2412674401       39.4500220183        3.6031601807  MEMB      52              0.0000000000
      5108        52  POPC      H16Z          -10.3705528493       41.0867262684        3.6725975905  MEMB      52              0.0000000000
      5109        53  POPC      N             -21.2739465799      -39.6064447288       18.1795637207  MEMB      53              0.0000000000
      5110        53  POPC      C12           -19.9797236661      -39.0156518433       17.6991600634  MEMB      53              0.0000000000
      5111        53  POPC      H12A          -20.1894352874      -37.9562624489       17.7098932333  MEMB      53              0.0000000000
      5112        53  POPC      H12B          -19.7201269708      -39.4236460525       16.7334737459  MEMB      53              0.0000000000
      5113        53  POPC      C13           -21.7149337368      -38.7379754947       19.3059809412  MEMB      53              0.0000000000
      5114        53  POPC      H13A          -22.6353848537      -39.1139976489       19.7276169693  MEMB      53              0.0000000000
      5115        53  POPC      H13B          -20.9125038087      -38.6293128041       20.0206126934  MEMB      53              0.0000000000
      5116        53  POPC      H13C          -21.7189712434      -37.7489407434       18.8721675867  MEMB      53              0.0000000000
      5117        53  POPC      C14           -22.2449928952      -39.3754074847       17.0528251006  MEMB      53              0.0000000000
      5118        53  POPC      H14A          -22.3221940144      -38.3325626651       16.7827977826  MEMB      53              0.0000000000
      5119        53  POPC      H14B          -21.7836671449      -39.8512837112       16.2001114722  MEMB      53              0.0000000000
      5120        53  POPC      H14C          -23.1863593119      -39.8760186754       17.2249218691  MEMB      53              0.0000000000
      5121        53  POPC      C15           -21.0174073867      -40.9806484461       18.6497094896  MEMB      53              0.0000000000
      5122        53  POPC      H15A          -20.4692306542      -41.5079812081       17.8830135906  MEMB      53              0.0000000000
      5123        53  POPC      H15B          -21.9995563446      -41.3495503575       18.9060192720  MEMB      53              0.0000000000
      5124        53  POPC      H15C          -20.4863012591      -40.9293164800       19.5886936528  MEMB      53              0.0000000000
      5125        53  POPC      C11           -18.6967365453      -39.1835398615       18.5061023309  MEMB      53              0.0000000000
      5126        53  POPC      H11A          -17.7174860556      -39.0504574346       17.9984819250  MEMB      53              0.0000000000
      5127        53  POPC      H11B          -18.5309728285      -40.2375721126       18.8157140693  MEMB      53              0.0000000000
      5128        53  POPC      P             -18.2863594464      -36.9769549139       19.9992718615  MEMB      53              0.0000000000
      5129        53  POPC      O13           -16.8452631988      -36.9499102864       19.7698534926  MEMB      53              0.0000000000
      5130        53  POPC      O14           -18.8642098054      -36.5581209817       21.2669273341  MEMB      53              0.0000000000
      5131        53  POPC      O12           -18.6712353705      -38.5016882073       19.7499150772  MEMB      53              0.0000000000
      5132        53  POPC      O11           -18.9288800786      -36.1320006354       18.8206905885  MEMB      53              0.0000000000
      5133        53  POPC      C1            -19.7064191769      -34.9825679960       19.0705786776  MEMB      53              0.0000000000
      5134        53  POPC      HA            -19.2283655139      -34.3429915156       19.8430599459  MEMB      53              0.0000000000
      5135        53  POPC      HB            -20.7067163652      -35.3558437144       19.3778116159  MEMB      53              0.0000000000
      5136        53  POPC      C2            -19.6399959625      -34.1542789346       17.7711383969  MEMB      53              0.0000000000
      5137        53  POPC      HS            -20.3084294942      -33.2675251907       17.7367056526  MEMB      53              0.0000000000
      5138        53  POPC      O21           -19.9154959315      -34.9178901232       16.6186521165  MEMB      53              0.0000000000
      5139        53  POPC      C21           -21.1894969806      -35.0655968330       16.2484715383  MEMB      53              0.0000000000
      5140        53  POPC      O22           -22.1280634898      -34.5652604853       16.8703037429  MEMB      53              0.0000000000
      5141        53  POPC      C22           -21.3308964985      -35.9381223023       15.0749650495  MEMB      53              0.0000000000
      5142        53  POPC      H2R           -21.0962312004      -36.9683379905       15.4183439739  MEMB      53              0.0000000000
      5143        53  POPC      H2S           -20.6492304309      -35.6186650442       14.2578975420  MEMB      53              0.0000000000
      5144        53  POPC      C3            -18.2707140725      -33.5151618093       17.4610210545  MEMB      53              0.0000000000
      5145        53  POPC      HX            -17.9540959892      -32.9367971592       18.3552071111  MEMB      53              0.0000000000
      5146        53  POPC      HY            -18.4688656970      -32.8318615074       16.6076994743  MEMB      53              0.0000000000
      5147        53  POPC      O31           -17.3231294224      -34.5810744674       17.2007270054  MEMB      53              0.0000000000
      5148        53  POPC      C31           -16.8177991401      -34.6579729653       15.9770468099  MEMB      53              0.0000000000
      5149        53  POPC      O32           -17.1778455747      -34.0320743220       15.0306331990  MEMB      53              0.0000000000
      5150        53  POPC      C32           -15.8141128611      -35.8550852088       15.9340650602  MEMB      53              0.0000000000
      5151        53  POPC      H2X           -15.6739950073      -36.2829799077       16.9497392063  MEMB      53              0.0000000000
      5152        53  POPC      H2Y           -14.8690099835      -35.3774042341       15.5980257115  MEMB      53              0.0000000000
      5153        53  POPC      C23           -22.7659248585      -35.7518701524       14.5455927749  MEMB      53              0.0000000000
      5154        53  POPC      H3R           -23.4658343946      -35.7577721971       15.4083862349  MEMB      53              0.0000000000
      5155        53  POPC      H3S           -23.0520235641      -36.5618839126       13.8410742655  MEMB      53              0.0000000000
      5156        53  POPC      C24           -23.0931788940      -34.3567404492       13.8782105049  MEMB      53              0.0000000000
      5157        53  POPC      H4R           -22.7168010562      -33.5396084006       14.5300969731  MEMB      53              0.0000000000
      5158        53  POPC      H4S           -24.1927895365      -34.2243875149       13.7906900675  MEMB      53              0.0000000000
      5159        53  POPC      C25           -22.5717110101      -33.9491956287       12.4797904231  MEMB      53              0.0000000000
      5160        53  POPC      H5R           -21.4641753232      -33.9451056596       12.5673634142  MEMB      53              0.0000000000
      5161        53  POPC      H5S           -22.9099637933      -32.9877472354       12.0376107360  MEMB      53              0.0000000000
      5162        53  POPC      C26           -22.9195823821      -35.0344288843       11.4324933372  MEMB      53              0.0000000000
      5163        53  POPC      H6R           -23.9273916077      -35.4733027375       11.5938350140  MEMB      53              0.0000000000
      5164        53  POPC      H6S           -22.3495056689      -35.9548687492       11.6817404898  MEMB      53              0.0000000000
      5165        53  POPC      C27           -22.6756421084      -34.6083468663        9.9961739910  MEMB      53              0.0000000000
      5166        53  POPC      H7R           -21.7341326658      -34.0312633547        9.8742900253  MEMB      53              0.0000000000
      5167        53  POPC      H7S           -23.4290519740      -33.8370055655        9.7283559073  MEMB      53              0.0000000000
      5168        53  POPC      C28           -22.6034584586      -35.7038281504        8.9216031638  MEMB      53              0.0000000000
      5169        53  POPC      H8R           -21.6292205167      -36.2314739909        9.0038918492  MEMB      53              0.0000000000
      5170        53  POPC      H8S           -22.6627622459      -35.0656297602        8.0141301832  MEMB      53              0.0000000000
      5171        53  POPC      C29           -23.7898864052      -36.6315388075        8.8953547668  MEMB      53              0.0000000000
      5172        53  POPC      H91           -24.7016310593      -36.0924093140        8.5986023065  MEMB      53              0.0000000000
      5173        53  POPC      C210          -23.8441975292      -37.9238063042        9.1205113787  MEMB      53              0.0000000000
      5174        53  POPC      H101          -24.8471365450      -38.3753520908        9.1353298707  MEMB      53              0.0000000000
      5175        53  POPC      C211          -22.7190418206      -38.8296495363        9.5521043407  MEMB      53              0.0000000000
      5176        53  POPC      H11R          -23.0999196132      -39.5582923814       10.2993213883  MEMB      53              0.0000000000
      5177        53  POPC      H11S          -21.8467762712      -38.2143603561        9.8601509793  MEMB      53              0.0000000000
      5178        53  POPC      C212          -22.0976340208      -39.6763569266        8.4127495821  MEMB      53              0.0000000000
      5179        53  POPC      H12R          -22.9570832037      -40.2412857967        7.9926027854  MEMB      53              0.0000000000
      5180        53  POPC      H12S          -21.3180572781      -40.3283284976        8.8616530633  MEMB      53              0.0000000000
      5181        53  POPC      C213          -21.4759025560      -38.8201726347        7.3224582389  MEMB      53              0.0000000000
      5182        53  POPC      H13R          -20.7314988608      -38.1298638239        7.7737430544  MEMB      53              0.0000000000
      5183        53  POPC      H13S          -22.3202566396      -38.2306753455        6.9054697121  MEMB      53              0.0000000000
      5184        53  POPC      C214          -20.6916169356      -39.5891473630        6.2290437535  MEMB      53              0.0000000000
      5185        53  POPC      H14R          -19.8959936336      -40.2131343450        6.6894181042  MEMB      53              0.0000000000
      5186        53  POPC      H14S          -20.0553937793      -38.9479782255        5.5821720745  MEMB      53              0.0000000000
      5187        53  POPC      C215          -21.4557130287      -40.6034454410        5.3547641427  MEMB      53              0.0000000000
      5188        53  POPC      H15R          -21.9627543209      -41.3130099931        6.0430576896  MEMB      53              0.0000000000
      5189        53  POPC      H15S          -20.7385264080      -41.1897556698        4.7414091074  MEMB      53              0.0000000000
      5190        53  POPC      C216          -22.5911422638      -39.9678354772        4.4868448745  MEMB      53              0.0000000000
      5191        53  POPC      H16R          -22.1563496650      -39.1617503020        3.8579552740  MEMB      53              0.0000000000
      5192        53  POPC      H16S          -23.4621339487      -39.5724837865        5.0519925654  MEMB      53              0.0000000000
      5193        53  POPC      C217          -23.1272301528      -41.0146287772        3.5054219501  MEMB      53              0.0000000000
      5194        53  POPC      H17R          -23.4765762288      -41.8780512981        4.1110455223  MEMB      53              0.0000000000
      5195        53  POPC      H17S          -22.2433821916      -41.4042837609        2.9565112322  MEMB      53              0.0000000000
      5196        53  POPC      C218          -24.2474783486      -40.7053499799        2.5566242662  MEMB      53              0.0000000000
      5197        53  POPC      H18R          -24.4760071869      -41.4980180759        1.8124647284  MEMB      53              0.0000000000
      5198        53  POPC      H18S          -23.8313350685      -39.9621000887        1.8433754370  MEMB      53              0.0000000000
      5199        53  POPC      H18T          -25.1558412025      -40.2616260657        3.0173914105  MEMB      53              0.0000000000
      5200        53  POPC      C33           -16.1978378122      -36.8585102392       14.7889742599  MEMB      53              0.0000000000
      5201        53  POPC      H3X           -15.3866758431      -37.6160623861       14.8384894314  MEMB      53              0.0000000000
      5202        53  POPC      H3Y           -16.3015961776      -36.2739270725       13.8499229750  MEMB      53              0.0000000000
      5203        53  POPC      C34           -17.6352935318      -37.4157100851       14.9519174657  MEMB      53              0.0000000000
      5204        53  POPC      H4X           -18.3951892713      -36.6091632678       15.0316781827  MEMB      53              0.0000000000
      5205        53  POPC      H4Y           -17.5686649482      -37.9615331696       15.9172976252  MEMB      53              0.0000000000
      5206        53  POPC      C35           -18.0753150984      -38.5154518390       14.0138870402  MEMB      53              0.0000000000
      5207        53  POPC      H5X           -19.1063154490      -38.8399627518       14.2708928580  MEMB      53              0.0000000000
      5208        53  POPC      H5Y           -17.4058504343      -39.3607974501       14.2813349093  MEMB      53              0.0000000000
      5209        53  POPC      C36           -18.0100786727      -38.2624108185       12.5071772574  MEMB      53              0.0000000000
      5210        53  POPC      H6X           -18.3846274294      -39.1876574528       12.0193730004  MEMB      53              0.0000000000
      5211        53  POPC      H6Y           -16.9321082815      -38.1478136035       12.2639317945  MEMB      53              0.0000000000
      5212        53  POPC      C37           -18.8466192988      -37.0432352528       12.1085097086  MEMB      53              0.0000000000
      5213        53  POPC      H7X           -18.4880747493      -36.2412180477       12.7886090475  MEMB      53              0.0000000000
      5214        53  POPC      H7Y           -19.9024331592      -37.3333794187       12.2966436316  MEMB      53              0.0000000000
      5215        53  POPC      C38           -18.7639176525      -36.6747269171       10.6306551118  MEMB      53              0.0000000000
      5216        53  POPC      H8X           -19.2786467497      -35.6971862270       10.5132274517  MEMB      53              0.0000000000
      5217        53  POPC      H8Y           -19.2627428515      -37.5372063929       10.1391027804  MEMB      53              0.0000000000
      5218        53  POPC      C39           -17.3286482193      -36.5981784559       10.0643582610  MEMB      53              0.0000000000
      5219        53  POPC      H9X           -16.9618288701      -37.6115870840        9.7946043093  MEMB      53              0.0000000000
      5220        53  POPC      H9Y           -16.6883463874      -36.1529189970       10.8556095502  MEMB      53              0.0000000000
      5221        53  POPC      C310          -17.2838048953      -35.6765990145        8.8170969806  MEMB      53              0.0000000000
      5222        53  POPC      H10X          -16.2445304007      -35.7229232233        8.4271178703  MEMB      53              0.0000000000
      5223        53  POPC      H10Y          -17.4003632860      -34.5893342755        9.0135411735  MEMB      53              0.0000000000
      5224        53  POPC      C311          -18.2183504335      -36.0714587066        7.6719870046  MEMB      53              0.0000000000
      5225        53  POPC      H11X          -19.2281928521      -36.2278711614        8.1079620588  MEMB      53              0.0000000000
      5226        53  POPC      H11Y          -17.9889073809      -37.0255494595        7.1510384065  MEMB      53              0.0000000000
      5227        53  POPC      C312          -18.4022269975      -34.9636581280        6.6339159539  MEMB      53              0.0000000000
      5228        53  POPC      H12X          -17.5025560674      -35.0091088731        5.9836489672  MEMB      53              0.0000000000
      5229        53  POPC      H12Y          -18.3891527449      -33.9595766197        7.1092797290  MEMB      53              0.0000000000
      5230        53  POPC      C313          -19.6776355946      -35.1371015783        5.8331270897  MEMB      53              0.0000000000
      5231        53  POPC      H13X          -20.5270580179      -35.0397452893        6.5425811315  MEMB      53              0.0000000000
      5232        53  POPC      H13Y          -19.7302496752      -36.1652667021        5.4154801567  MEMB      53              0.0000000000
      5233        53  POPC      C314          -19.7908528694      -34.2409950898        4.6011545645  MEMB      53              0.0000000000
      5234        53  POPC      H14X          -18.7552526281      -33.9210891942        4.3572008938  MEMB      53              0.0000000000
      5235        53  POPC      H14Y          -20.4206163345      -33.4100588716        4.9849049725  MEMB      53              0.0000000000
      5236        53  POPC      C315          -20.3391843305      -34.9693791075        3.3597829348  MEMB      53              0.0000000000
      5237        53  POPC      H15X          -20.4833015989      -34.1499175008        2.6235539768  MEMB      53              0.0000000000
      5238        53  POPC      H15Y          -21.3258688015      -35.4630448671        3.4904310214  MEMB      53              0.0000000000
      5239        53  POPC      C316          -19.4438668023      -36.0217728172        2.6851916131  MEMB      53              0.0000000000
      5240        53  POPC      H16X          -18.4115671899      -35.6174268980        2.6131995019  MEMB      53              0.0000000000
      5241        53  POPC      H16Y          -19.7765035403      -36.2122113402        1.6424017272  MEMB      53              0.0000000000
      5242        53  POPC      H16Z          -19.4821690881      -36.9877379306        3.2326989526  MEMB      53              0.0000000000
      5243        54  POPC      N              18.4120389255       37.8426056886       20.4617419697  MEMB      54              0.0000000000
      5244        54  POPC      C12            18.2444355090       38.3046796237       18.9413253847  MEMB      54              0.0000000000
      5245        54  POPC      H12A           18.1343337639       39.3790379825       18.9469678550  MEMB      54              0.0000000000
      5246        54  POPC      H12B           17.3616965982       37.8683440270       18.4977226957  MEMB      54              0.0000000000
      5247        54  POPC      C13            19.7436246898       38.3167796479       21.0263827232  MEMB      54              0.0000000000
      5248        54  POPC      H13A           20.4772733168       37.9109345544       20.3456115656  MEMB      54              0.0000000000
      5249        54  POPC      H13B           19.7411429054       39.3967705671       21.0227318545  MEMB      54              0.0000000000
      5250        54  POPC      H13C           19.8481479646       37.8502510260       21.9947968731  MEMB      54              0.0000000000
      5251        54  POPC      C14            17.2843603717       38.4531546272       21.2565320789  MEMB      54              0.0000000000
      5252        54  POPC      H14A           17.1977793215       38.0667199822       22.2613065490  MEMB      54              0.0000000000
      5253        54  POPC      H14B           17.3639629739       39.5293592901       21.2135528051  MEMB      54              0.0000000000
      5254        54  POPC      H14C           16.4068443949       38.1185840932       20.7232137910  MEMB      54              0.0000000000
      5255        54  POPC      C15            18.3279803168       36.3402562380       20.5180291187  MEMB      54              0.0000000000
      5256        54  POPC      H15A           17.5300469326       35.9986097965       19.8753940164  MEMB      54              0.0000000000
      5257        54  POPC      H15B           18.1825534017       36.0442618324       21.5464445101  MEMB      54              0.0000000000
      5258        54  POPC      H15C           19.2691566946       36.0289587173       20.0894489693  MEMB      54              0.0000000000
      5259        54  POPC      C11            19.3632781281       37.9893123995       17.9525991005  MEMB      54              0.0000000000
      5260        54  POPC      H11A           18.9853794389       38.1616870580       16.9221619944  MEMB      54              0.0000000000
      5261        54  POPC      H11B           19.6304855547       36.9140084919       18.0341018654  MEMB      54              0.0000000000
      5262        54  POPC      P              21.9829187875       38.5435915269       17.7479451035  MEMB      54              0.0000000000
      5263        54  POPC      O13            22.0660206767       37.4540111697       16.7497816809  MEMB      54              0.0000000000
      5264        54  POPC      O14            22.8350372302       38.4668684722       18.9499820095  MEMB      54              0.0000000000
      5265        54  POPC      O12            20.4767301111       38.7983529024       18.3129035588  MEMB      54              0.0000000000
      5266        54  POPC      O11            22.1850606022       39.9503507131       17.0827772755  MEMB      54              0.0000000000
      5267        54  POPC      C1             22.0896025266       41.1226082332       17.8706087833  MEMB      54              0.0000000000
      5268        54  POPC      HA             23.0752827396       41.3078154176       18.3485772356  MEMB      54              0.0000000000
      5269        54  POPC      HB             21.3509116739       41.0181747194       18.6938648469  MEMB      54              0.0000000000
      5270        54  POPC      C2             21.6814809910       42.3742847014       16.9975722295  MEMB      54              0.0000000000
      5271        54  POPC      HS             21.5641666298       43.3555830991       17.5051269529  MEMB      54              0.0000000000
      5272        54  POPC      O21            20.4470223152       42.0158576563       16.3016383160  MEMB      54              0.0000000000
      5273        54  POPC      C21            19.3392589390       41.9324766285       17.0048020471  MEMB      54              0.0000000000
      5274        54  POPC      O22            19.2204861139       42.1216613748       18.1771096076  MEMB      54              0.0000000000
      5275        54  POPC      C22            18.1965176862       41.4784727868       15.9454043856  MEMB      54              0.0000000000
      5276        54  POPC      H2R            17.2638209052       41.9868764796       16.2708624683  MEMB      54              0.0000000000
      5277        54  POPC      H2S            17.9407235145       40.4152537771       16.1415058176  MEMB      54              0.0000000000
      5278        54  POPC      C3             22.7851686800       42.7899367693       16.0329394945  MEMB      54              0.0000000000
      5279        54  POPC      HX             23.6685785685       43.0480689876       16.6552544207  MEMB      54              0.0000000000
      5280        54  POPC      HY             22.5139729351       43.6605556695       15.3982769722  MEMB      54              0.0000000000
      5281        54  POPC      O31            23.3461081454       41.7708066166       15.2206031914  MEMB      54              0.0000000000
      5282        54  POPC      C31            22.8514343820       41.6403239779       14.0075826574  MEMB      54              0.0000000000
      5283        54  POPC      O32            21.9470032583       42.3063533359       13.5563503355  MEMB      54              0.0000000000
      5284        54  POPC      C32            23.4884686937       40.4925038249       13.1609237285  MEMB      54              0.0000000000
      5285        54  POPC      H2X            23.4151337054       39.5679512225       13.7725982794  MEMB      54              0.0000000000
      5286        54  POPC      H2Y            24.5451412225       40.7363618015       12.9194750700  MEMB      54              0.0000000000
      5287        54  POPC      C23            18.4895935322       41.8089061929       14.4214464690  MEMB      54              0.0000000000
      5288        54  POPC      H3R            19.0986540676       41.0440712616       13.8938160504  MEMB      54              0.0000000000
      5289        54  POPC      H3S            19.1017629777       42.7336569829       14.4878218381  MEMB      54              0.0000000000
      5290        54  POPC      C24            17.1624373004       42.1403645360       13.7565173578  MEMB      54              0.0000000000
      5291        54  POPC      H4R            16.5589257195       42.9454686964       14.2275824670  MEMB      54              0.0000000000
      5292        54  POPC      H4S            16.4264833705       41.3093040014       13.8015868454  MEMB      54              0.0000000000
      5293        54  POPC      C25            17.3482267394       42.6547498955       12.3638680733  MEMB      54              0.0000000000
      5294        54  POPC      H5R            18.4062582555       42.9716548977       12.2436107577  MEMB      54              0.0000000000
      5295        54  POPC      H5S            16.7582280114       43.5886331525       12.2451882712  MEMB      54              0.0000000000
      5296        54  POPC      C26            17.0546460597       41.5536348158       11.3310603891  MEMB      54              0.0000000000
      5297        54  POPC      H6R            16.0543896742       41.0751616620       11.4008583699  MEMB      54              0.0000000000
      5298        54  POPC      H6S            17.8436827204       40.7719496100       11.3044179759  MEMB      54              0.0000000000
      5299        54  POPC      C27            17.0940010392       42.0941206004        9.9313129258  MEMB      54              0.0000000000
      5300        54  POPC      H7R            16.5810876783       43.0772726741        9.8631008151  MEMB      54              0.0000000000
      5301        54  POPC      H7S            16.5925517155       41.3789822065        9.2446927383  MEMB      54              0.0000000000
      5302        54  POPC      C28            18.5571500303       42.2201021802        9.3360270741  MEMB      54              0.0000000000
      5303        54  POPC      H8R            19.1290854906       41.4379587109        9.8795909776  MEMB      54              0.0000000000
      5304        54  POPC      H8S            19.0756291906       43.1534513710        9.6432074106  MEMB      54              0.0000000000
      5305        54  POPC      C29            18.5852176555       42.0094570116        7.8557042610  MEMB      54              0.0000000000
      5306        54  POPC      H91            18.4637872967       42.9586005817        7.3131360445  MEMB      54              0.0000000000
      5307        54  POPC      C210           18.8407773758       40.8984800139        7.1994451879  MEMB      54              0.0000000000
      5308        54  POPC      H101           18.9327046516       40.9324114023        6.1038183143  MEMB      54              0.0000000000
      5309        54  POPC      C211           19.1682332182       39.5218794373        7.7359376788  MEMB      54              0.0000000000
      5310        54  POPC      H11R           18.8453229916       39.4222865057        8.7942998573  MEMB      54              0.0000000000
      5311        54  POPC      H11S           20.2527648506       39.3119565235        7.6174285830  MEMB      54              0.0000000000
      5312        54  POPC      C212           18.3568486730       38.5623464167        6.9633588293  MEMB      54              0.0000000000
      5313        54  POPC      H12R           17.3359555563       38.9449612320        6.7495728147  MEMB      54              0.0000000000
      5314        54  POPC      H12S           18.2069943977       37.6071844416        7.5106523426  MEMB      54              0.0000000000
      5315        54  POPC      C213           19.0071816992       38.0619013099        5.6676339155  MEMB      54              0.0000000000
      5316        54  POPC      H13R           19.9523303385       37.5429863344        5.9354819589  MEMB      54              0.0000000000
      5317        54  POPC      H13S           19.2143985842       38.8211723578        4.8834852734  MEMB      54              0.0000000000
      5318        54  POPC      C214           18.1283519650       36.9858425502        5.0087534668  MEMB      54              0.0000000000
      5319        54  POPC      H14R           17.1108988866       37.4297931120        5.0536779700  MEMB      54              0.0000000000
      5320        54  POPC      H14S           18.0569119892       36.1195741749        5.7007045992  MEMB      54              0.0000000000
      5321        54  POPC      C215           18.6273154294       36.6024022862        3.6002367771  MEMB      54              0.0000000000
      5322        54  POPC      H15R           18.9851046625       37.5389638252        3.1215304883  MEMB      54              0.0000000000
      5323        54  POPC      H15S           17.7153131944       36.2245945288        3.0904976239  MEMB      54              0.0000000000
      5324        54  POPC      C216           19.8026129274       35.6435098694        3.5338615629  MEMB      54              0.0000000000
      5325        54  POPC      H16R           19.3737761818       34.6513103701        3.7906886185  MEMB      54              0.0000000000
      5326        54  POPC      H16S           20.6439237819       35.9578604707        4.1878494218  MEMB      54              0.0000000000
      5327        54  POPC      C217           20.3555955689       35.5338276066        2.0975405836  MEMB      54              0.0000000000
      5328        54  POPC      H17R           19.5018488464       35.3627279751        1.4074936970  MEMB      54              0.0000000000
      5329        54  POPC      H17S           20.9935160083       34.6362746421        1.9499687012  MEMB      54              0.0000000000
      5330        54  POPC      C218           21.2034715734       36.7221865842        1.5401568865  MEMB      54              0.0000000000
      5331        54  POPC      H18R           21.9370916126       37.1442231287        2.2598854089  MEMB      54              0.0000000000
      5332        54  POPC      H18S           20.5294432058       37.5146113557        1.1501960970  MEMB      54              0.0000000000
      5333        54  POPC      H18T           21.7681467915       36.3939377385        0.6414280128  MEMB      54              0.0000000000
      5334        54  POPC      C33            22.6192696843       40.2020537488       11.8930078375  MEMB      54              0.0000000000
      5335        54  POPC      H3X            22.6116488774       41.0625676223       11.1903141263  MEMB      54              0.0000000000
      5336        54  POPC      H3Y            21.5465326297       40.1192612222       12.1699583077  MEMB      54              0.0000000000
      5337        54  POPC      C34            22.9607210044       38.8990920550       11.0904443056  MEMB      54              0.0000000000
      5338        54  POPC      H4X            22.5368259964       38.0572193629       11.6785633521  MEMB      54              0.0000000000
      5339        54  POPC      H4Y            24.0422701636       38.6464734526       11.1179469016  MEMB      54              0.0000000000
      5340        54  POPC      C35            22.4951685707       38.8478052965        9.6119139702  MEMB      54              0.0000000000
      5341        54  POPC      H5X            21.4893725152       39.3104270258        9.5187668073  MEMB      54              0.0000000000
      5342        54  POPC      H5Y            22.2705130526       37.7720059461        9.4491053846  MEMB      54              0.0000000000
      5343        54  POPC      C36            23.4692954074       39.4062710611        8.6464250253  MEMB      54              0.0000000000
      5344        54  POPC      H6X            24.3298896867       38.7039400052        8.6671501984  MEMB      54              0.0000000000
      5345        54  POPC      H6Y            23.8566008211       40.3778852988        9.0209670684  MEMB      54              0.0000000000
      5346        54  POPC      C37            23.0267706978       39.5035468903        7.1693580468  MEMB      54              0.0000000000
      5347        54  POPC      H7X            22.1761737398       40.2120097382        7.0750921849  MEMB      54              0.0000000000
      5348        54  POPC      H7Y            22.6610751992       38.5324139484        6.7725101306  MEMB      54              0.0000000000
      5349        54  POPC      C38            24.0570622103       40.0037181398        6.2032104946  MEMB      54              0.0000000000
      5350        54  POPC      H8X            24.9317103987       39.3186675924        6.1990358189  MEMB      54              0.0000000000
      5351        54  POPC      H8Y            24.4196578980       41.0028796568        6.5265075374  MEMB      54              0.0000000000
      5352        54  POPC      C39            23.6052850958       40.0646583453        4.7189435369  MEMB      54              0.0000000000
      5353        54  POPC      H9X            23.4169920916       39.0151777492        4.4067622045  MEMB      54              0.0000000000
      5354        54  POPC      H9Y            24.3281695521       40.6136506689        4.0783449020  MEMB      54              0.0000000000
      5355        54  POPC      C310           22.2833553607       40.8285008198        4.5869931247  MEMB      54              0.0000000000
      5356        54  POPC      H10X           22.3987897225       41.7684952139        5.1678601469  MEMB      54              0.0000000000
      5357        54  POPC      H10Y           21.3646990473       40.3619760046        5.0026207169  MEMB      54              0.0000000000
      5358        54  POPC      C311           21.7913064592       41.1756427275        3.1746919114  MEMB      54              0.0000000000
      5359        54  POPC      H11X           21.8963233102       40.2158155051        2.6251240741  MEMB      54              0.0000000000
      5360        54  POPC      H11Y           22.5709215844       41.8593714521        2.7758980907  MEMB      54              0.0000000000
      5361        54  POPC      C312           20.3594547748       41.5931775026        2.9814685527  MEMB      54              0.0000000000
      5362        54  POPC      H12X           20.2870131997       42.5930878004        3.4602719029  MEMB      54              0.0000000000
      5363        54  POPC      H12Y           19.6461706092       40.9270187435        3.5122973329  MEMB      54              0.0000000000
      5364        54  POPC      C313           19.8948503250       41.5432913893        1.4767405152  MEMB      54              0.0000000000
      5365        54  POPC      H13X           20.7622991693       41.8701651139        0.8643624064  MEMB      54              0.0000000000
      5366        54  POPC      H13Y           19.0716934164       42.2730720154        1.3213250369  MEMB      54              0.0000000000
      5367        54  POPC      C314           19.2220507437       40.2591775662        1.0907442024  MEMB      54              0.0000000000
      5368        54  POPC      H14X           18.5698697122       39.7254707006        1.8147173421  MEMB      54              0.0000000000
      5369        54  POPC      H14Y           20.0841755784       39.5636927136        1.0049402274  MEMB      54              0.0000000000
      5370        54  POPC      C315           18.4851587190       40.3346352270       -0.2287172408  MEMB      54              0.0000000000
      5371        54  POPC      H15X           19.0408839408       40.8906129285       -1.0138151422  MEMB      54              0.0000000000
      5372        54  POPC      H15Y           17.5742866640       40.9534449088       -0.0813807024  MEMB      54              0.0000000000
      5373        54  POPC      C316           18.1589356406       39.0242534296       -0.8971632355  MEMB      54              0.0000000000
      5374        54  POPC      H16X           18.6199594753       38.2585640269       -0.2372419110  MEMB      54              0.0000000000
      5375        54  POPC      H16Y           18.6254502435       38.8542064175       -1.8910302802  MEMB      54              0.0000000000
      5376        54  POPC      H16Z           17.0624400017       38.8502043123       -0.9386980340  MEMB      54              0.0000000000
      5377        55  POPC      N             -28.0977585383      -30.2973439845       20.6373773537  MEMB      55              0.0000000000
      5378        55  POPC      C12           -27.5833208497      -29.9865369674       19.2563362130  MEMB      55              0.0000000000
      5379        55  POPC      H12A          -27.6666145333      -30.8883440310       18.6679431374  MEMB      55              0.0000000000
      5380        55  POPC      H12B          -26.5146828582      -29.8825893982       19.3729883196  MEMB      55              0.0000000000
      5381        55  POPC      C13           -27.8131515883      -29.1465580570       21.6059527884  MEMB      55              0.0000000000
      5382        55  POPC      H13A          -28.4548203041      -28.3370618490       21.2907113784  MEMB      55              0.0000000000
      5383        55  POPC      H13B          -28.0818041608      -29.4077192043       22.6188794156  MEMB      55              0.0000000000
      5384        55  POPC      H13C          -26.7983277475      -28.7971104327       21.4858737268  MEMB      55              0.0000000000
      5385        55  POPC      C14           -29.5726204385      -30.5794270290       20.5587093550  MEMB      55              0.0000000000
      5386        55  POPC      H14A          -29.9417013064      -30.6368705860       21.5720600244  MEMB      55              0.0000000000
      5387        55  POPC      H14B          -30.0662497840      -29.8613057261       19.9207188718  MEMB      55              0.0000000000
      5388        55  POPC      H14C          -29.6633954339      -31.4899842542       19.9850844603  MEMB      55              0.0000000000
      5389        55  POPC      C15           -27.4068855337      -31.4925284521       21.2191999595  MEMB      55              0.0000000000
      5390        55  POPC      H15A          -26.3702608227      -31.3245434555       21.4713708983  MEMB      55              0.0000000000
      5391        55  POPC      H15B          -27.3126698531      -32.2407828637       20.4461290883  MEMB      55              0.0000000000
      5392        55  POPC      H15C          -28.0023643700      -31.9819048536       21.9757153069  MEMB      55              0.0000000000
      5393        55  POPC      C11           -28.0471792451      -28.7145060674       18.5575095286  MEMB      55              0.0000000000
      5394        55  POPC      H11A          -27.6675501836      -28.6587796266       17.5148699447  MEMB      55              0.0000000000
      5395        55  POPC      H11B          -27.6454423726      -27.8707972539       19.1584121653  MEMB      55              0.0000000000
      5396        55  POPC      P             -30.2226587751      -27.7561707638       17.4423656996  MEMB      55              0.0000000000
      5397        55  POPC      O13           -29.9515115048      -26.2923315963       17.7731317512  MEMB      55              0.0000000000
      5398        55  POPC      O14           -31.5803863269      -28.2759181063       17.4577435269  MEMB      55              0.0000000000
      5399        55  POPC      O12           -29.4790733851      -28.6280955122       18.4844526213  MEMB      55              0.0000000000
      5400        55  POPC      O11           -29.7060809508      -28.0789921130       16.0072212243  MEMB      55              0.0000000000
      5401        55  POPC      C1            -29.4802568165      -29.4310908580       15.5294969092  MEMB      55              0.0000000000
      5402        55  POPC      HA            -30.4532394875      -29.7362032178       15.0884388634  MEMB      55              0.0000000000
      5403        55  POPC      HB            -29.1311736352      -30.1675731508       16.2845172616  MEMB      55              0.0000000000
      5404        55  POPC      C2            -28.3470483585      -29.4356945775       14.4177438167  MEMB      55              0.0000000000
      5405        55  POPC      HS            -27.4791233458      -28.8852787654       14.8397268583  MEMB      55              0.0000000000
      5406        55  POPC      O21           -28.7475975416      -28.7337061890       13.2337894006  MEMB      55              0.0000000000
      5407        55  POPC      C21           -27.7400668164      -28.3655313614       12.3849694908  MEMB      55              0.0000000000
      5408        55  POPC      O22           -26.5656616039      -28.5247747562       12.6684785945  MEMB      55              0.0000000000
      5409        55  POPC      C22           -28.3194764208      -27.9391277156       11.0642428187  MEMB      55              0.0000000000
      5410        55  POPC      H2R           -28.7735738040      -26.9328508653       11.1888358600  MEMB      55              0.0000000000
      5411        55  POPC      H2S           -29.1887484232      -28.5750041702       10.7915741260  MEMB      55              0.0000000000
      5412        55  POPC      C3            -27.9482145690      -30.9181729117       14.0552843416  MEMB      55              0.0000000000
      5413        55  POPC      HX            -27.7959266017      -31.4511362776       15.0181338481  MEMB      55              0.0000000000
      5414        55  POPC      HY            -26.9511502506      -30.8847225458       13.5663418225  MEMB      55              0.0000000000
      5415        55  POPC      O31           -28.9267416853      -31.7031192944       13.2918282641  MEMB      55              0.0000000000
      5416        55  POPC      C31           -28.6538326451      -31.9796538693       11.9739738334  MEMB      55              0.0000000000
      5417        55  POPC      O32           -27.7176720200      -31.4239768645       11.3996485203  MEMB      55              0.0000000000
      5418        55  POPC      C32           -29.7115219379      -32.8563673595       11.3871141146  MEMB      55              0.0000000000
      5419        55  POPC      H2X           -30.3233120559      -33.3417872250       12.1773045211  MEMB      55              0.0000000000
      5420        55  POPC      H2Y           -29.2952355486      -33.6963709105       10.7909421886  MEMB      55              0.0000000000
      5421        55  POPC      C23           -27.2746039177      -28.1351742129        9.9546913466  MEMB      55              0.0000000000
      5422        55  POPC      H3R           -26.8477208450      -29.1573581567       10.0397331780  MEMB      55              0.0000000000
      5423        55  POPC      H3S           -26.4108516632      -27.4614920141       10.1401783049  MEMB      55              0.0000000000
      5424        55  POPC      C24           -27.9761935922      -27.8545886295        8.5751798069  MEMB      55              0.0000000000
      5425        55  POPC      H4R           -28.1730226570      -26.7611696188        8.5714022594  MEMB      55              0.0000000000
      5426        55  POPC      H4S           -28.9330870075      -28.4152604298        8.5094295903  MEMB      55              0.0000000000
      5427        55  POPC      C25           -27.0852818104      -28.2427733653        7.3626198789  MEMB      55              0.0000000000
      5428        55  POPC      H5R           -26.9087602606      -29.3350296912        7.2619370642  MEMB      55              0.0000000000
      5429        55  POPC      H5S           -26.0552197725      -27.8470322787        7.4917801763  MEMB      55              0.0000000000
      5430        55  POPC      C26           -27.6037862138      -27.8381318575        5.9375001380  MEMB      55              0.0000000000
      5431        55  POPC      H6R           -28.6878423158      -28.0809070661        5.9232357019  MEMB      55              0.0000000000
      5432        55  POPC      H6S           -27.2755579158      -28.4875532027        5.0979535191  MEMB      55              0.0000000000
      5433        55  POPC      C27           -27.3521786251      -26.4218123974        5.4348368036  MEMB      55              0.0000000000
      5434        55  POPC      H7R           -26.2536515833      -26.3214249052        5.3026177376  MEMB      55              0.0000000000
      5435        55  POPC      H7S           -27.5215648044      -25.8128043826        6.3484773036  MEMB      55              0.0000000000
      5436        55  POPC      C28           -28.2042034675      -26.0171518311        4.2537171078  MEMB      55              0.0000000000
      5437        55  POPC      H8R           -29.2459642338      -26.3068105363        4.5089685678  MEMB      55              0.0000000000
      5438        55  POPC      H8S           -27.9162595187      -26.6404221315        3.3802508616  MEMB      55              0.0000000000
      5439        55  POPC      C29           -27.8638544914      -24.6170008681        3.8486081048  MEMB      55              0.0000000000
      5440        55  POPC      H91           -26.7848546001      -24.4594693203        3.7038902700  MEMB      55              0.0000000000
      5441        55  POPC      C210          -28.6977350241      -23.5598593240        3.8021512336  MEMB      55              0.0000000000
      5442        55  POPC      H101          -28.2626801405      -22.5873020357        3.5285463929  MEMB      55              0.0000000000
      5443        55  POPC      C211          -30.2309934190      -23.5781717087        4.0839666898  MEMB      55              0.0000000000
      5444        55  POPC      H11R          -30.6240596373      -22.6120773752        4.4666961339  MEMB      55              0.0000000000
      5445        55  POPC      H11S          -30.5039277687      -24.3593611116        4.8252963512  MEMB      55              0.0000000000
      5446        55  POPC      C212          -31.1243881046      -23.7076961933        2.8697971110  MEMB      55              0.0000000000
      5447        55  POPC      H12R          -30.9384118625      -22.9691626025        2.0609082544  MEMB      55              0.0000000000
      5448        55  POPC      H12S          -32.1611661005      -23.3331606348        3.0081300204  MEMB      55              0.0000000000
      5449        55  POPC      C213          -31.2500086083      -25.1131081084        2.2565873653  MEMB      55              0.0000000000
      5450        55  POPC      H13R          -32.1803284496      -25.2677293127        1.6692887735  MEMB      55              0.0000000000
      5451        55  POPC      H13S          -31.2592517442      -25.8988527256        3.0419785750  MEMB      55              0.0000000000
      5452        55  POPC      C214          -30.2256699020      -25.4409524150        1.1741692240  MEMB      55              0.0000000000
      5453        55  POPC      H14R          -29.2213543732      -25.5674903347        1.6320558824  MEMB      55              0.0000000000
      5454        55  POPC      H14S          -30.1410556159      -24.5316151375        0.5415027527  MEMB      55              0.0000000000
      5455        55  POPC      C215          -30.6613463793      -26.6028445656        0.2183653137  MEMB      55              0.0000000000
      5456        55  POPC      H15R          -29.9604543698      -26.6554063916       -0.6420475298  MEMB      55              0.0000000000
      5457        55  POPC      H15S          -31.7002120582      -26.3193846535       -0.0550018628  MEMB      55              0.0000000000
      5458        55  POPC      C216          -30.7089195965      -28.0058668963        0.8456609706  MEMB      55              0.0000000000
      5459        55  POPC      H16R          -31.3872305977      -27.8875677307        1.7175665277  MEMB      55              0.0000000000
      5460        55  POPC      H16S          -29.6762088154      -28.1048862411        1.2431825349  MEMB      55              0.0000000000
      5461        55  POPC      C217          -30.9710291119      -29.2691944651        0.0326698365  MEMB      55              0.0000000000
      5462        55  POPC      H17R          -30.6378350622      -30.1690731825        0.5925988605  MEMB      55              0.0000000000
      5463        55  POPC      H17S          -30.3418403650      -29.1744113175       -0.8780758775  MEMB      55              0.0000000000
      5464        55  POPC      C218          -32.4890391378      -29.5016973097       -0.3402792690  MEMB      55              0.0000000000
      5465        55  POPC      H18R          -32.4757414954      -30.4814667980       -0.8639170627  MEMB      55              0.0000000000
      5466        55  POPC      H18S          -32.7971674626      -28.7045006134       -1.0501080998  MEMB      55              0.0000000000
      5467        55  POPC      H18T          -33.0360131378      -29.6172308880        0.6198193044  MEMB      55              0.0000000000
      5468        55  POPC      C33           -30.7496002838      -32.0155026093       10.5657352976  MEMB      55              0.0000000000
      5469        55  POPC      H3X           -30.9514047370      -31.0666536185       11.1072904207  MEMB      55              0.0000000000
      5470        55  POPC      H3Y           -31.6393177325      -32.6641146363       10.4173237040  MEMB      55              0.0000000000
      5471        55  POPC      C34           -30.1011588860      -31.5148198924        9.2424471616  MEMB      55              0.0000000000
      5472        55  POPC      H4X           -29.6897732444      -32.4592533420        8.8263601767  MEMB      55              0.0000000000
      5473        55  POPC      H4Y           -29.1938100108      -30.9302439244        9.5057149378  MEMB      55              0.0000000000
      5474        55  POPC      C35           -31.1249800360      -30.8558520344        8.2332243827  MEMB      55              0.0000000000
      5475        55  POPC      H5X           -31.5668853758      -29.9071622688        8.6060898220  MEMB      55              0.0000000000
      5476        55  POPC      H5Y           -31.9956423380      -31.5391532171        8.1364365949  MEMB      55              0.0000000000
      5477        55  POPC      C36           -30.5007340635      -30.6721863169        6.8676662680  MEMB      55              0.0000000000
      5478        55  POPC      H6X           -29.4689897498      -30.2796367286        6.9930828263  MEMB      55              0.0000000000
      5479        55  POPC      H6Y           -31.0619587431      -29.9250794101        6.2666842592  MEMB      55              0.0000000000
      5480        55  POPC      C37           -30.6638769201      -31.8941598604        5.9162989736  MEMB      55              0.0000000000
      5481        55  POPC      H7X           -31.7459839176      -32.1246814925        5.8151767984  MEMB      55              0.0000000000
      5482        55  POPC      H7Y           -30.1916493480      -32.7695787944        6.4112371882  MEMB      55              0.0000000000
      5483        55  POPC      C38           -30.1384329121      -31.6334534821        4.4907567632  MEMB      55              0.0000000000
      5484        55  POPC      H8X           -30.6254953914      -30.7498122162        4.0257092621  MEMB      55              0.0000000000
      5485        55  POPC      H8Y           -30.4555771124      -32.4942304082        3.8640165104  MEMB      55              0.0000000000
      5486        55  POPC      C39           -28.6110364627      -31.4460480370        4.3853950048  MEMB      55              0.0000000000
      5487        55  POPC      H9X           -28.0218261789      -32.3309792458        4.7079613181  MEMB      55              0.0000000000
      5488        55  POPC      H9Y           -28.4206914843      -30.4681672698        4.8771661449  MEMB      55              0.0000000000
      5489        55  POPC      C310          -28.1614013029      -31.1844445502        2.9260481183  MEMB      55              0.0000000000
      5490        55  POPC      H10X          -28.5348854801      -30.2356847610        2.4848158572  MEMB      55              0.0000000000
      5491        55  POPC      H10Y          -28.4396948512      -32.0734247797        2.3205832866  MEMB      55              0.0000000000
      5492        55  POPC      C311          -26.6056913943      -30.9971467563        2.7356450185  MEMB      55              0.0000000000
      5493        55  POPC      H11X          -26.1928286755      -31.8213647076        3.3557494993  MEMB      55              0.0000000000
      5494        55  POPC      H11Y          -26.4120580352      -29.9946407356        3.1736047007  MEMB      55              0.0000000000
      5495        55  POPC      C312          -26.1628980637      -31.1491195134        1.2555946626  MEMB      55              0.0000000000
      5496        55  POPC      H12X          -26.2597102182      -32.1692221885        0.8262467737  MEMB      55              0.0000000000
      5497        55  POPC      H12Y          -25.0718914359      -30.9653007074        1.1544203068  MEMB      55              0.0000000000
      5498        55  POPC      C313          -27.0182680217      -30.3478161198        0.1990105664  MEMB      55              0.0000000000
      5499        55  POPC      H13X          -27.2785651836      -29.4280662257        0.7652503422  MEMB      55              0.0000000000
      5500        55  POPC      H13Y          -27.9048898296      -30.9102231464       -0.1641984954  MEMB      55              0.0000000000
      5501        55  POPC      C314          -26.2311989498      -30.0951796691       -1.0943978488  MEMB      55              0.0000000000
      5502        55  POPC      H14X          -26.0852338007      -31.0892536193       -1.5685625751  MEMB      55              0.0000000000
      5503        55  POPC      H14Y          -25.2930197036      -29.5703270154       -0.8139154971  MEMB      55              0.0000000000
      5504        55  POPC      C315          -26.9144392462      -29.1078415011       -2.1113711668  MEMB      55              0.0000000000
      5505        55  POPC      H15X          -27.8835896542      -29.4031484535       -2.5672909888  MEMB      55              0.0000000000
      5506        55  POPC      H15Y          -26.2628817210      -28.9692559410       -3.0005211523  MEMB      55              0.0000000000
      5507        55  POPC      C316          -27.1109516342      -27.7777110416       -1.4193241641  MEMB      55              0.0000000000
      5508        55  POPC      H16X          -27.1841207404      -27.0020844694       -2.2113918199  MEMB      55              0.0000000000
      5509        55  POPC      H16Y          -26.2162978490      -27.3728603817       -0.8996979176  MEMB      55              0.0000000000
      5510        55  POPC      H16Z          -28.0000595002      -27.8819453330       -0.7613412025  MEMB      55              0.0000000000
      5511        56  POPC      N             -43.9123312412       -1.6396454505       18.2272623234  MEMB      56              0.0000000000
      5512        56  POPC      C12           -44.4180264465       -3.0485309385       18.0427870667  MEMB      56              0.0000000000
      5513        56  POPC      H12A          -43.6838405377       -3.5511465655       17.4306196107  MEMB      56              0.0000000000
      5514        56  POPC      H12B          -45.2613138027       -2.9195823848       17.3804889645  MEMB      56              0.0000000000
      5515        56  POPC      C13           -42.7890836233       -1.5333482906       19.2787387709  MEMB      56              0.0000000000
      5516        56  POPC      H13A          -41.9417286511       -2.1556916306       19.0315991762  MEMB      56              0.0000000000
      5517        56  POPC      H13B          -42.4527045535       -0.5080459661       19.3235094896  MEMB      56              0.0000000000
      5518        56  POPC      H13C          -43.1103541477       -2.0123714149       20.1918225832  MEMB      56              0.0000000000
      5519        56  POPC      C14           -43.3237666436       -1.1775834014       16.9232308858  MEMB      56              0.0000000000
      5520        56  POPC      H14A          -43.9423516377       -1.4740730241       16.0890567355  MEMB      56              0.0000000000
      5521        56  POPC      H14B          -43.1274514438       -0.1157338398       16.9415592966  MEMB      56              0.0000000000
      5522        56  POPC      H14C          -42.3486820981       -1.6195424907       16.7808154569  MEMB      56              0.0000000000
      5523        56  POPC      C15           -45.1143308542       -0.7280149799       18.5471000077  MEMB      56              0.0000000000
      5524        56  POPC      H15A          -45.8804400071       -0.9141302752       17.8089686634  MEMB      56              0.0000000000
      5525        56  POPC      H15B          -44.9858857861        0.3408276511       18.6335701171  MEMB      56              0.0000000000
      5526        56  POPC      H15C          -45.4752725199       -1.1745853696       19.4618108667  MEMB      56              0.0000000000
      5527        56  POPC      C11           -44.8480796574       -3.8910841426       19.2239365219  MEMB      56              0.0000000000
      5528        56  POPC      H11A          -43.9703971436       -4.0079281026       19.8950118076  MEMB      56              0.0000000000
      5529        56  POPC      H11B          -45.2464836339       -4.8641432485       18.8651171906  MEMB      56              0.0000000000
      5530        56  POPC      P             -47.3442590810       -3.3911432642       19.8114484350  MEMB      56              0.0000000000
      5531        56  POPC      O13           -48.1380071351       -2.1762782904       19.9991283017  MEMB      56              0.0000000000
      5532        56  POPC      O14           -47.7875021287       -4.5425392641       20.6015983046  MEMB      56              0.0000000000
      5533        56  POPC      O12           -45.7496001843       -3.2165325030       20.0830105794  MEMB      56              0.0000000000
      5534        56  POPC      O11           -47.4376136856       -3.7495139359       18.2617588033  MEMB      56              0.0000000000
      5535        56  POPC      C1            -48.4091714916       -4.6796494170       17.8510193140  MEMB      56              0.0000000000
      5536        56  POPC      HA            -49.3934629554       -4.4825048149       18.3270711317  MEMB      56              0.0000000000
      5537        56  POPC      HB            -48.1613301718       -5.7198003645       18.1526507675  MEMB      56              0.0000000000
      5538        56  POPC      C2            -48.5994374590       -4.6213459250       16.3334173887  MEMB      56              0.0000000000
      5539        56  POPC      HS            -49.4224392900       -5.3371417203       16.1221692788  MEMB      56              0.0000000000
      5540        56  POPC      O21           -47.3811367189       -4.9383506753       15.6811711111  MEMB      56              0.0000000000
      5541        56  POPC      C21           -46.9049214237       -6.2185610666       15.5164450801  MEMB      56              0.0000000000
      5542        56  POPC      O22           -47.5474047743       -7.2855138104       15.7171846973  MEMB      56              0.0000000000
      5543        56  POPC      C22           -45.4785686926       -6.1007239768       14.8860305892  MEMB      56              0.0000000000
      5544        56  POPC      H2R           -44.7399938155       -6.3543984999       15.6762697092  MEMB      56              0.0000000000
      5545        56  POPC      H2S           -45.2267319374       -5.0717778196       14.5511141083  MEMB      56              0.0000000000
      5546        56  POPC      C3            -49.0816484146       -3.2335788260       15.7649840506  MEMB      56              0.0000000000
      5547        56  POPC      HX            -48.3909120648       -2.3837264051       15.9519472889  MEMB      56              0.0000000000
      5548        56  POPC      HY            -50.0178248422       -2.9911073409       16.3118865217  MEMB      56              0.0000000000
      5549        56  POPC      O31           -49.3319517570       -3.3263644281       14.3852327085  MEMB      56              0.0000000000
      5550        56  POPC      C31           -48.4222612853       -2.7708032337       13.5484848318  MEMB      56              0.0000000000
      5551        56  POPC      O32           -47.3127223088       -2.3373727231       13.8542161863  MEMB      56              0.0000000000
      5552        56  POPC      C32           -48.9878060975       -3.0360163568       12.1956338123  MEMB      56              0.0000000000
      5553        56  POPC      H2X           -50.0391117470       -2.6791669153       12.1539694812  MEMB      56              0.0000000000
      5554        56  POPC      H2Y           -49.0818914153       -4.1223944033       11.9829094747  MEMB      56              0.0000000000
      5555        56  POPC      C23           -45.2610275698       -7.2045227515       13.8824893308  MEMB      56              0.0000000000
      5556        56  POPC      H3R           -45.7387730390       -8.1474806178       14.2244116516  MEMB      56              0.0000000000
      5557        56  POPC      H3S           -44.1833717858       -7.4100631378       13.7071830065  MEMB      56              0.0000000000
      5558        56  POPC      C24           -45.6953567050       -6.7529959809       12.4940840145  MEMB      56              0.0000000000
      5559        56  POPC      H4R           -44.9968137576       -5.9072463661       12.3178270313  MEMB      56              0.0000000000
      5560        56  POPC      H4S           -46.7407860476       -6.3772890551       12.4785070748  MEMB      56              0.0000000000
      5561        56  POPC      C25           -45.3466023532       -7.8072751842       11.4386586878  MEMB      56              0.0000000000
      5562        56  POPC      H5R           -45.9873126620       -8.6975434642       11.6153888592  MEMB      56              0.0000000000
      5563        56  POPC      H5S           -44.3364800035       -8.2660565134       11.3795520662  MEMB      56              0.0000000000
      5564        56  POPC      C26           -45.6672995887       -7.2307231155        9.9667108704  MEMB      56              0.0000000000
      5565        56  POPC      H6R           -45.0036217799       -7.7002034047        9.2094520355  MEMB      56              0.0000000000
      5566        56  POPC      H6S           -45.3743793271       -6.1647849476       10.0775921382  MEMB      56              0.0000000000
      5567        56  POPC      C27           -47.0721670171       -7.3140418075        9.4989618650  MEMB      56              0.0000000000
      5568        56  POPC      H7R           -47.6887255992       -6.5258072749        9.9815208480  MEMB      56              0.0000000000
      5569        56  POPC      H7S           -47.4679929013       -8.2513527120        9.9451591358  MEMB      56              0.0000000000
      5570        56  POPC      C28           -47.1283882000       -7.0360969745        7.9646834916  MEMB      56              0.0000000000
      5571        56  POPC      H8R           -46.6279447440       -6.0649388313        7.7628692624  MEMB      56              0.0000000000
      5572        56  POPC      H8S           -48.1567626977       -6.8812575520        7.5737986542  MEMB      56              0.0000000000
      5573        56  POPC      C29           -46.5746654358       -8.1690272162        7.0786552209  MEMB      56              0.0000000000
      5574        56  POPC      H91           -46.9607761095       -9.1825788484        7.2620445801  MEMB      56              0.0000000000
      5575        56  POPC      C210          -45.6974871862       -8.0073032198        6.1389851994  MEMB      56              0.0000000000
      5576        56  POPC      H101          -45.3652468717       -8.9565574855        5.6934151629  MEMB      56              0.0000000000
      5577        56  POPC      C211          -44.9340225676       -6.8097248242        5.4697030118  MEMB      56              0.0000000000
      5578        56  POPC      H11R          -43.8950059170       -7.1986452353        5.5289197471  MEMB      56              0.0000000000
      5579        56  POPC      H11S          -45.0020147253       -5.9045935128        6.1103559887  MEMB      56              0.0000000000
      5580        56  POPC      C212          -45.1897462101       -6.4078258679        4.0164639033  MEMB      56              0.0000000000
      5581        56  POPC      H12R          -46.1722341602       -5.8894509319        3.9984178329  MEMB      56              0.0000000000
      5582        56  POPC      H12S          -45.2907844349       -7.3049708661        3.3689741310  MEMB      56              0.0000000000
      5583        56  POPC      C213          -44.0759563974       -5.4682224985        3.4097859061  MEMB      56              0.0000000000
      5584        56  POPC      H13R          -43.1072932469       -5.9564041455        3.6499768978  MEMB      56              0.0000000000
      5585        56  POPC      H13S          -44.2055501258       -4.5188021448        3.9720378155  MEMB      56              0.0000000000
      5586        56  POPC      C214          -44.2489081248       -5.1392842841        1.9644399730  MEMB      56              0.0000000000
      5587        56  POPC      H14R          -45.3189563519       -4.9308820780        1.7502296045  MEMB      56              0.0000000000
      5588        56  POPC      H14S          -43.7992245036       -5.9618159879        1.3681632725  MEMB      56              0.0000000000
      5589        56  POPC      C215          -43.4851539315       -3.8380044638        1.5517267499  MEMB      56              0.0000000000
      5590        56  POPC      H15R          -43.5485825652       -3.7318683289        0.4476272169  MEMB      56              0.0000000000
      5591        56  POPC      H15S          -42.3827272737       -3.9217130887        1.6611309499  MEMB      56              0.0000000000
      5592        56  POPC      C216          -43.9328944041       -2.4429520828        2.1362567433  MEMB      56              0.0000000000
      5593        56  POPC      H16R          -43.9757520078       -2.5690117959        3.2392490867  MEMB      56              0.0000000000
      5594        56  POPC      H16S          -44.9585003789       -2.1980734003        1.7862745173  MEMB      56              0.0000000000
      5595        56  POPC      C217          -43.0368171163       -1.2395202231        1.6319663151  MEMB      56              0.0000000000
      5596        56  POPC      H17R          -43.5455266402       -0.2774434341        1.8554489572  MEMB      56              0.0000000000
      5597        56  POPC      H17S          -42.7484537275       -1.3613121886        0.5659760749  MEMB      56              0.0000000000
      5598        56  POPC      C218          -41.6912395287       -1.0584091076        2.4325645774  MEMB      56              0.0000000000
      5599        56  POPC      H18R          -41.1304458773       -2.0173377355        2.4156103090  MEMB      56              0.0000000000
      5600        56  POPC      H18S          -42.0159249606       -0.8237835156        3.4688326553  MEMB      56              0.0000000000
      5601        56  POPC      H18T          -41.0900781842       -0.2153851383        2.0297779746  MEMB      56              0.0000000000
      5602        56  POPC      C33           -48.1017633011       -2.4041841826       11.1535974204  MEMB      56              0.0000000000
      5603        56  POPC      H3X           -47.5849573570       -1.4762011052       11.4792966980  MEMB      56              0.0000000000
      5604        56  POPC      H3Y           -48.7838126664       -2.1293983713       10.3207572307  MEMB      56              0.0000000000
      5605        56  POPC      C34           -47.1384892038       -3.4311583496       10.5839396165  MEMB      56              0.0000000000
      5606        56  POPC      H4X           -47.6804346000       -4.3927124984       10.4573290371  MEMB      56              0.0000000000
      5607        56  POPC      H4Y           -46.2968778432       -3.5671106906       11.2963497380  MEMB      56              0.0000000000
      5608        56  POPC      C35           -46.4701922384       -2.9655603737        9.3192984609  MEMB      56              0.0000000000
      5609        56  POPC      H5X           -45.7012367086       -3.6715153097        8.9389614128  MEMB      56              0.0000000000
      5610        56  POPC      H5Y           -46.0668227742       -1.9343389536        9.4098332106  MEMB      56              0.0000000000
      5611        56  POPC      C36           -47.4236308688       -2.9070598261        8.1073925224  MEMB      56              0.0000000000
      5612        56  POPC      H6X           -48.4089428410       -2.4114603837        8.2410436828  MEMB      56              0.0000000000
      5613        56  POPC      H6Y           -47.5691919519       -3.9812363105        7.8639223829  MEMB      56              0.0000000000
      5614        56  POPC      C37           -46.7716678344       -2.2549825776        6.8739662567  MEMB      56              0.0000000000
      5615        56  POPC      H7X           -45.9460575581       -2.8937024147        6.4935381194  MEMB      56              0.0000000000
      5616        56  POPC      H7Y           -46.1444947886       -1.4181367938        7.2490184647  MEMB      56              0.0000000000
      5617        56  POPC      C38           -47.7291446579       -1.8364345984        5.7485965309  MEMB      56              0.0000000000
      5618        56  POPC      H8X           -47.0878075153       -1.1230905696        5.1881078899  MEMB      56              0.0000000000
      5619        56  POPC      H8Y           -48.6117753121       -1.2799367970        6.1301659443  MEMB      56              0.0000000000
      5620        56  POPC      C39           -48.2642104113       -2.9680839063        4.8359813031  MEMB      56              0.0000000000
      5621        56  POPC      H9X           -48.9483886950       -3.6642726357        5.3665870027  MEMB      56              0.0000000000
      5622        56  POPC      H9Y           -47.3267119052       -3.5099963716        4.5874898559  MEMB      56              0.0000000000
      5623        56  POPC      C310          -48.7738474435       -2.2556140156        3.5427908358  MEMB      56              0.0000000000
      5624        56  POPC      H10X          -47.9514693533       -1.6704122310        3.0785126646  MEMB      56              0.0000000000
      5625        56  POPC      H10Y          -49.5144772377       -1.5564361421        3.9865673523  MEMB      56              0.0000000000
      5626        56  POPC      C311          -49.5071348959       -3.0767341439        2.4607481901  MEMB      56              0.0000000000
      5627        56  POPC      H11X          -50.3066862603       -2.4365242797        2.0304334998  MEMB      56              0.0000000000
      5628        56  POPC      H11Y          -50.0117800596       -3.8513841909        3.0768423300  MEMB      56              0.0000000000
      5629        56  POPC      C312          -48.7250043884       -3.7910900984        1.3870058298  MEMB      56              0.0000000000
      5630        56  POPC      H12X          -49.3599232306       -4.4132833306        0.7206162959  MEMB      56              0.0000000000
      5631        56  POPC      H12Y          -48.0383362952       -4.4598458973        1.9487660015  MEMB      56              0.0000000000
      5632        56  POPC      C313          -47.8196034945       -2.9825011796        0.4927759610  MEMB      56              0.0000000000
      5633        56  POPC      H13X          -47.1708356531       -2.4620472896        1.2293554075  MEMB      56              0.0000000000
      5634        56  POPC      H13Y          -48.4053107277       -2.2080366600       -0.0471062773  MEMB      56              0.0000000000
      5635        56  POPC      C314          -46.9634083784       -3.9207303724       -0.4343142465  MEMB      56              0.0000000000
      5636        56  POPC      H14X          -47.6848311460       -4.5565604618       -0.9907226784  MEMB      56              0.0000000000
      5637        56  POPC      H14Y          -46.2621105629       -4.6230797809        0.0648921372  MEMB      56              0.0000000000
      5638        56  POPC      C315          -46.0963937436       -3.1507175023       -1.4229895329  MEMB      56              0.0000000000
      5639        56  POPC      H15X          -45.4552412595       -3.9066062822       -1.9248620261  MEMB      56              0.0000000000
      5640        56  POPC      H15Y          -45.4398936980       -2.4552806957       -0.8575725090  MEMB      56              0.0000000000
      5641        56  POPC      C316          -46.9250773510       -2.3051313854       -2.4581732544  MEMB      56              0.0000000000
      5642        56  POPC      H16X          -47.4758603609       -1.3951690732       -2.1373494281  MEMB      56              0.0000000000
      5643        56  POPC      H16Y          -47.6437291345       -2.9009023258       -3.0605990555  MEMB      56              0.0000000000
      5644        56  POPC      H16Z          -46.1985259366       -1.9514617250       -3.2206428503  MEMB      56              0.0000000000
      5645        57  POPC      N              13.2612707921      -40.4359563785       20.6182900602  MEMB      57              0.0000000000
      5646        57  POPC      C12            13.2088577179      -41.9459991232       20.3979837917  MEMB      57              0.0000000000
      5647        57  POPC      H12A           12.2262945743      -42.1502937502       19.9989431648  MEMB      57              0.0000000000
      5648        57  POPC      H12B           13.4191600704      -42.5234547546       21.2860818891  MEMB      57              0.0000000000
      5649        57  POPC      C13            12.2514192629      -40.1509684553       21.7818022972  MEMB      57              0.0000000000
      5650        57  POPC      H13A           11.2348247725      -40.2285306087       21.4255442282  MEMB      57              0.0000000000
      5651        57  POPC      H13B           12.4026616984      -40.8835645453       22.5607943688  MEMB      57              0.0000000000
      5652        57  POPC      H13C           12.4320086837      -39.1435986284       22.1267568482  MEMB      57              0.0000000000
      5653        57  POPC      C14            14.6687899527      -39.9261654795       21.0124860884  MEMB      57              0.0000000000
      5654        57  POPC      H14A           15.0491720881      -40.5120561004       21.8361615030  MEMB      57              0.0000000000
      5655        57  POPC      H14B           15.3374161990      -39.9505151818       20.1646970620  MEMB      57              0.0000000000
      5656        57  POPC      H14C           14.5144292760      -38.8935295844       21.2885948462  MEMB      57              0.0000000000
      5657        57  POPC      C15            12.7555805952      -39.7190252499       19.3558275675  MEMB      57              0.0000000000
      5658        57  POPC      H15A           12.7061505455      -38.6580965519       19.5517542496  MEMB      57              0.0000000000
      5659        57  POPC      H15B           11.7442459580      -40.0871344841       19.2658388280  MEMB      57              0.0000000000
      5660        57  POPC      H15C           13.3619531290      -39.9580022958       18.4946643523  MEMB      57              0.0000000000
      5661        57  POPC      C11            14.2109448791      -42.5962775455       19.3864900907  MEMB      57              0.0000000000
      5662        57  POPC      H11A           13.5856608215      -43.3616768700       18.8790408056  MEMB      57              0.0000000000
      5663        57  POPC      H11B           14.9569969735      -43.0856566177       20.0484836249  MEMB      57              0.0000000000
      5664        57  POPC      P              15.5112066467      -42.5749272526       17.2866178501  MEMB      57              0.0000000000
      5665        57  POPC      O13            14.5873662744      -43.0650123265       16.2084066153  MEMB      57              0.0000000000
      5666        57  POPC      O14            16.4525559387      -43.5481901146       17.9405635908  MEMB      57              0.0000000000
      5667        57  POPC      O12            14.6870997489      -41.7848483570       18.4254525299  MEMB      57              0.0000000000
      5668        57  POPC      O11            16.3726312956      -41.4527049189       16.5860795132  MEMB      57              0.0000000000
      5669        57  POPC      C1             16.4708771813      -40.0788154542       16.9688488348  MEMB      57              0.0000000000
      5670        57  POPC      HA             17.1924847712      -39.9681623052       17.8063210005  MEMB      57              0.0000000000
      5671        57  POPC      HB             15.4265912105      -39.8557235993       17.2754720567  MEMB      57              0.0000000000
      5672        57  POPC      C2             16.7321407627      -39.0968652944       15.8343571424  MEMB      57              0.0000000000
      5673        57  POPC      HS             16.5397722416      -38.0758733470       16.2279184766  MEMB      57              0.0000000000
      5674        57  POPC      O21            15.9285303647      -39.3816373774       14.6548867485  MEMB      57              0.0000000000
      5675        57  POPC      C21            14.5775659931      -39.3498014468       14.7668840447  MEMB      57              0.0000000000
      5676        57  POPC      O22            13.8910556900      -38.8941017050       15.6592841541  MEMB      57              0.0000000000
      5677        57  POPC      C22            14.0163326537      -40.0133850878       13.5195938081  MEMB      57              0.0000000000
      5678        57  POPC      H2R            12.9427253941      -40.2205094903       13.7165408752  MEMB      57              0.0000000000
      5679        57  POPC      H2S            14.3486634817      -41.0711523791       13.4488432834  MEMB      57              0.0000000000
      5680        57  POPC      C3             18.2839057212      -39.1746453745       15.4318487080  MEMB      57              0.0000000000
      5681        57  POPC      HX             18.9407418651      -38.9463329788       16.2983131536  MEMB      57              0.0000000000
      5682        57  POPC      HY             18.4300773812      -38.4193571864       14.6302910995  MEMB      57              0.0000000000
      5683        57  POPC      O31            18.5708612507      -40.4975205187       15.0492115016  MEMB      57              0.0000000000
      5684        57  POPC      C31            18.8091918845      -40.8526684393       13.8059661283  MEMB      57              0.0000000000
      5685        57  POPC      O32            18.6769142440      -40.0770092347       12.8162541805  MEMB      57              0.0000000000
      5686        57  POPC      C32            19.5552048011      -42.1402683919       13.6319606300  MEMB      57              0.0000000000
      5687        57  POPC      H2X            19.3359982241      -42.7333725199       14.5454688628  MEMB      57              0.0000000000
      5688        57  POPC      H2Y            20.6359152169      -41.8866264898       13.5866668440  MEMB      57              0.0000000000
      5689        57  POPC      C23            14.1207360896      -39.1800436660       12.2205585521  MEMB      57              0.0000000000
      5690        57  POPC      H3R            13.6880702147      -38.2083832844       12.5414908557  MEMB      57              0.0000000000
      5691        57  POPC      H3S            13.4139633143      -39.7216387236       11.5561280183  MEMB      57              0.0000000000
      5692        57  POPC      C24            15.5460823783      -39.0556491588       11.6230600468  MEMB      57              0.0000000000
      5693        57  POPC      H4R            15.9513087343      -40.0893753280       11.6620807645  MEMB      57              0.0000000000
      5694        57  POPC      H4S            16.1289502106      -38.4171846668       12.3208775402  MEMB      57              0.0000000000
      5695        57  POPC      C25            15.7135590250      -38.5662830841       10.2001632521  MEMB      57              0.0000000000
      5696        57  POPC      H5R            15.4005692417      -37.5087232244       10.0662792667  MEMB      57              0.0000000000
      5697        57  POPC      H5S            15.0851752577      -39.2461000800        9.5859126987  MEMB      57              0.0000000000
      5698        57  POPC      C26            17.1077945320      -38.7565388111        9.6903556839  MEMB      57              0.0000000000
      5699        57  POPC      H6R            17.7365963114      -38.4734384729       10.5614376686  MEMB      57              0.0000000000
      5700        57  POPC      H6S            17.3286870059      -37.8987679813        9.0197170825  MEMB      57              0.0000000000
      5701        57  POPC      C27            17.5444909234      -40.1461479813        9.2339543052  MEMB      57              0.0000000000
      5702        57  POPC      H7R            17.0006614832      -40.9189557210        9.8181957332  MEMB      57              0.0000000000
      5703        57  POPC      H7S            18.6243151288      -40.2454483796        9.4756986691  MEMB      57              0.0000000000
      5704        57  POPC      C28            17.6025435893      -40.5252904435        7.6613148209  MEMB      57              0.0000000000
      5705        57  POPC      H8R            18.3683574451      -39.8530138123        7.2187150559  MEMB      57              0.0000000000
      5706        57  POPC      H8S            16.5917949907      -40.2870150799        7.2664308311  MEMB      57              0.0000000000
      5707        57  POPC      C29            18.0249603247      -41.9927382671        7.5331627007  MEMB      57              0.0000000000
      5708        57  POPC      H91            18.2497350418      -42.4870785729        8.4897727629  MEMB      57              0.0000000000
      5709        57  POPC      C210           18.0272448020      -42.6639275679        6.3788065337  MEMB      57              0.0000000000
      5710        57  POPC      H101           18.3037831882      -43.7281482288        6.4098036179  MEMB      57              0.0000000000
      5711        57  POPC      C211           17.5682203527      -42.1875340369        4.9999590939  MEMB      57              0.0000000000
      5712        57  POPC      H11R           18.0406426629      -41.2401578079        4.6628884323  MEMB      57              0.0000000000
      5713        57  POPC      H11S           16.4899741402      -41.9591363281        5.1397457973  MEMB      57              0.0000000000
      5714        57  POPC      C212           17.5673112091      -43.3292220861        3.8644530475  MEMB      57              0.0000000000
      5715        57  POPC      H12R           16.9422003788      -44.2132133950        4.1136844285  MEMB      57              0.0000000000
      5716        57  POPC      H12S           18.6106464343      -43.6559265457        3.6668755804  MEMB      57              0.0000000000
      5717        57  POPC      C213           16.9774335452      -42.8651777070        2.5346774351  MEMB      57              0.0000000000
      5718        57  POPC      H13R           15.9723860997      -42.4673901346        2.7915146190  MEMB      57              0.0000000000
      5719        57  POPC      H13S           16.7895181871      -43.7339844047        1.8682054923  MEMB      57              0.0000000000
      5720        57  POPC      C214           17.8479678041      -41.7688907315        1.7651653551  MEMB      57              0.0000000000
      5721        57  POPC      H14R           17.9674420491      -40.9196450647        2.4714439114  MEMB      57              0.0000000000
      5722        57  POPC      H14S           17.1949602276      -41.4777634527        0.9147858994  MEMB      57              0.0000000000
      5723        57  POPC      C215           19.2454051866      -42.1035070950        1.2733072524  MEMB      57              0.0000000000
      5724        57  POPC      H15R           19.3417738850      -43.1314195904        0.8629052231  MEMB      57              0.0000000000
      5725        57  POPC      H15S           19.8851095941      -41.9545883322        2.1693665321  MEMB      57              0.0000000000
      5726        57  POPC      C216           19.8144737157      -41.1628403643        0.2312620585  MEMB      57              0.0000000000
      5727        57  POPC      H16R           20.7437220622      -41.6314518702       -0.1576086688  MEMB      57              0.0000000000
      5728        57  POPC      H16S           20.0774368630      -40.1701580994        0.6552361230  MEMB      57              0.0000000000
      5729        57  POPC      C217           18.8982894966      -40.8858447770       -0.9960286202  MEMB      57              0.0000000000
      5730        57  POPC      H17R           18.1126574249      -40.1595447816       -0.6967093746  MEMB      57              0.0000000000
      5731        57  POPC      H17S           18.4603410430      -41.8431791767       -1.3510385142  MEMB      57              0.0000000000
      5732        57  POPC      C218           19.6354005300      -40.0891785562       -2.1140453891  MEMB      57              0.0000000000
      5733        57  POPC      H18R           19.0294695643      -39.8878103669       -3.0232307208  MEMB      57              0.0000000000
      5734        57  POPC      H18S           20.4579302375      -40.7776700594       -2.4034313026  MEMB      57              0.0000000000
      5735        57  POPC      H18T           20.0591185173      -39.1082521835       -1.8097956707  MEMB      57              0.0000000000
      5736        57  POPC      C33            19.1415637136      -42.8878164143       12.3262663363  MEMB      57              0.0000000000
      5737        57  POPC      H3X            19.8546486227      -43.7304998216       12.2009035628  MEMB      57              0.0000000000
      5738        57  POPC      H3Y            19.3390912768      -42.0751293030       11.5949362160  MEMB      57              0.0000000000
      5739        57  POPC      C34            17.6937303020      -43.4213481325       12.3535062291  MEMB      57              0.0000000000
      5740        57  POPC      H4X            16.9599289080      -42.6487755659       12.6681299695  MEMB      57              0.0000000000
      5741        57  POPC      H4Y            17.6887853515      -44.2553611892       13.0874803943  MEMB      57              0.0000000000
      5742        57  POPC      C35            17.2058234388      -43.9365743371       10.9765502748  MEMB      57              0.0000000000
      5743        57  POPC      H5X            17.8672638919      -44.7869782822       10.7052009521  MEMB      57              0.0000000000
      5744        57  POPC      H5Y            17.3446841341      -43.2356665113       10.1258050248  MEMB      57              0.0000000000
      5745        57  POPC      C36            15.7481384692      -44.4348990960       11.0993739588  MEMB      57              0.0000000000
      5746        57  POPC      H6X            15.2137757918      -43.4628644536       11.0367139319  MEMB      57              0.0000000000
      5747        57  POPC      H6Y            15.5946514365      -44.9661797254       12.0629626979  MEMB      57              0.0000000000
      5748        57  POPC      C37            15.2527293298      -45.1569173444        9.8266161569  MEMB      57              0.0000000000
      5749        57  POPC      H7X            14.2659988256      -45.6589642781        9.9195285300  MEMB      57              0.0000000000
      5750        57  POPC      H7Y            15.9732294748      -45.9758031895        9.6153659698  MEMB      57              0.0000000000
      5751        57  POPC      C38            15.1784592381      -44.2802402121        8.5737044363  MEMB      57              0.0000000000
      5752        57  POPC      H8X            16.1351037261      -44.3271959219        8.0107239052  MEMB      57              0.0000000000
      5753        57  POPC      H8Y            15.0639449412      -43.2243179028        8.8996429144  MEMB      57              0.0000000000
      5754        57  POPC      C39            14.0945210038      -44.7554091461        7.5490810769  MEMB      57              0.0000000000
      5755        57  POPC      H9X            13.1672417198      -44.7017919248        8.1586704391  MEMB      57              0.0000000000
      5756        57  POPC      H9Y            14.3870740666      -45.8092767232        7.3538978066  MEMB      57              0.0000000000
      5757        57  POPC      C310           13.9647419379      -43.9471907384        6.2942475572  MEMB      57              0.0000000000
      5758        57  POPC      H10X           14.9087473439      -43.9624416088        5.7086337814  MEMB      57              0.0000000000
      5759        57  POPC      H10Y           13.6750355398      -42.9048233845        6.5469559219  MEMB      57              0.0000000000
      5760        57  POPC      C311           12.7162935987      -44.3451416155        5.4633280784  MEMB      57              0.0000000000
      5761        57  POPC      H11X           11.7997583645      -43.9445563170        5.9468730321  MEMB      57              0.0000000000
      5762        57  POPC      H11Y           12.6937270988      -45.4546769449        5.5157038519  MEMB      57              0.0000000000
      5763        57  POPC      C312           12.7384397036      -43.8955532207        4.0492589985  MEMB      57              0.0000000000
      5764        57  POPC      H12X           12.1216270120      -44.5738872188        3.4217827176  MEMB      57              0.0000000000
      5765        57  POPC      H12Y           13.7053644010      -43.9397071928        3.5038896425  MEMB      57              0.0000000000
      5766        57  POPC      C313           12.3324941013      -42.4464590870        3.9306447599  MEMB      57              0.0000000000
      5767        57  POPC      H13X           12.1141639148      -42.0715070091        4.9534167135  MEMB      57              0.0000000000
      5768        57  POPC      H13Y           11.3879403961      -42.2298198505        3.3873151156  MEMB      57              0.0000000000
      5769        57  POPC      C314           13.4715756230      -41.6145387258        3.3115743972  MEMB      57              0.0000000000
      5770        57  POPC      H14X           13.6871642676      -42.2362580444        2.4164165641  MEMB      57              0.0000000000
      5771        57  POPC      H14Y           14.3064370021      -41.7113278836        4.0381820503  MEMB      57              0.0000000000
      5772        57  POPC      C315           13.1912931506      -40.1559901843        2.8787531901  MEMB      57              0.0000000000
      5773        57  POPC      H15X           12.9197995776      -39.5234368175        3.7508133267  MEMB      57              0.0000000000
      5774        57  POPC      H15Y           12.2528829999      -40.1820388963        2.2845913114  MEMB      57              0.0000000000
      5775        57  POPC      C316           14.3293023244      -39.5124291972        1.9952480308  MEMB      57              0.0000000000
      5776        57  POPC      H16X           14.4930399538      -40.1675059976        1.1129874580  MEMB      57              0.0000000000
      5777        57  POPC      H16Y           15.2721083936      -39.4518182568        2.5798545881  MEMB      57              0.0000000000
      5778        57  POPC      H16Z           13.9702400085      -38.5231281447        1.6393289059  MEMB      57              0.0000000000
      5779        58  POPC      N              30.7152792112       27.3635696962       21.1391944649  MEMB      58              0.0000000000
      5780        58  POPC      C12            31.0579911317       26.8186528589       19.7429230322  MEMB      58              0.0000000000
      5781        58  POPC      H12A           30.4248315303       25.9808622702       19.4907012397  MEMB      58              0.0000000000
      5782        58  POPC      H12B           32.0442566376       26.3866779418       19.8270533739  MEMB      58              0.0000000000
      5783        58  POPC      C13            31.6032180137       28.5299104879       21.4816655602  MEMB      58              0.0000000000
      5784        58  POPC      H13A           32.5839258946       28.1289865927       21.6911224412  MEMB      58              0.0000000000
      5785        58  POPC      H13B           31.6923725066       29.2451263550       20.6773537096  MEMB      58              0.0000000000
      5786        58  POPC      H13C           31.2309955944       29.0157295280       22.3715142490  MEMB      58              0.0000000000
      5787        58  POPC      C14            29.3790177719       27.8986171923       21.2792752813  MEMB      58              0.0000000000
      5788        58  POPC      H14A           29.1495628644       28.1467653781       22.3050299250  MEMB      58              0.0000000000
      5789        58  POPC      H14B           29.3841150679       28.7932747726       20.6743274384  MEMB      58              0.0000000000
      5790        58  POPC      H14C           28.5995557120       27.2609703510       20.8890887419  MEMB      58              0.0000000000
      5791        58  POPC      C15            30.7914774549       26.2068739754       22.0290591285  MEMB      58              0.0000000000
      5792        58  POPC      H15A           30.4349312364       26.5069711454       23.0033367939  MEMB      58              0.0000000000
      5793        58  POPC      H15B           31.7905683517       25.8492947250       22.2299438430  MEMB      58              0.0000000000
      5794        58  POPC      H15C           30.2594287581       25.3752876998       21.5911226529  MEMB      58              0.0000000000
      5795        58  POPC      C11            30.9744930885       27.6679701430       18.4438517472  MEMB      58              0.0000000000
      5796        58  POPC      H11A           31.1180272036       26.9251070510       17.6302956716  MEMB      58              0.0000000000
      5797        58  POPC      H11B           31.8629122394       28.3348791792       18.4601271554  MEMB      58              0.0000000000
      5798        58  POPC      P              29.1097928317       28.6025329052       16.9426339951  MEMB      58              0.0000000000
      5799        58  POPC      O13            27.9786336175       29.5610907551       17.1865816049  MEMB      58              0.0000000000
      5800        58  POPC      O14            28.8041238189       27.2922604963       16.3322170790  MEMB      58              0.0000000000
      5801        58  POPC      O12            29.7701490256       28.4143473203       18.3399903851  MEMB      58              0.0000000000
      5802        58  POPC      O11            30.2266750950       29.2806626640       16.0826077268  MEMB      58              0.0000000000
      5803        58  POPC      C1             30.5323692847       30.6016036704       16.4140935070  MEMB      58              0.0000000000
      5804        58  POPC      HA             31.0592882624       30.5647099677       17.3914962632  MEMB      58              0.0000000000
      5805        58  POPC      HB             29.7313868472       31.3395156054       16.6337159572  MEMB      58              0.0000000000
      5806        58  POPC      C2             31.3662458628       31.4259193128       15.3523450958  MEMB      58              0.0000000000
      5807        58  POPC      HS             31.3125944432       32.4189680565       15.8476198214  MEMB      58              0.0000000000
      5808        58  POPC      O21            30.6468137643       31.2299519079       14.1019744017  MEMB      58              0.0000000000
      5809        58  POPC      C21            30.4788236951       32.2911156451       13.3925820639  MEMB      58              0.0000000000
      5810        58  POPC      O22            30.9415279501       33.4196196459       13.6231320036  MEMB      58              0.0000000000
      5811        58  POPC      C22            29.5663008435       31.9774961236       12.1895635793  MEMB      58              0.0000000000
      5812        58  POPC      H2R            28.8693871818       32.8394333958       12.2650371390  MEMB      58              0.0000000000
      5813        58  POPC      H2S            29.1261465980       30.9641665360       12.3068173675  MEMB      58              0.0000000000
      5814        58  POPC      C3             32.8341610435       31.0647243679       15.2611514476  MEMB      58              0.0000000000
      5815        58  POPC      HX             33.2985612493       31.2203253733       16.2583684968  MEMB      58              0.0000000000
      5816        58  POPC      HY             33.2509150042       31.7435137654       14.4866305627  MEMB      58              0.0000000000
      5817        58  POPC      O31            32.8839905522       29.6527875968       15.0053748296  MEMB      58              0.0000000000
      5818        58  POPC      C31            33.2299386501       29.2572199372       13.7514029874  MEMB      58              0.0000000000
      5819        58  POPC      O32            33.8227504823       29.8879187747       12.9238646575  MEMB      58              0.0000000000
      5820        58  POPC      C32            32.8159184046       27.8518712161       13.6635461265  MEMB      58              0.0000000000
      5821        58  POPC      H2X            31.7178857168       27.9582532613       13.5319113326  MEMB      58              0.0000000000
      5822        58  POPC      H2Y            33.0379014311       27.2338300986       14.5596877502  MEMB      58              0.0000000000
      5823        58  POPC      C23            30.2736124619       32.0379970350       10.7512466359  MEMB      58              0.0000000000
      5824        58  POPC      H3R            31.2060259513       31.4370399890       10.6897907331  MEMB      58              0.0000000000
      5825        58  POPC      H3S            30.6363103141       33.0811370240       10.6302920272  MEMB      58              0.0000000000
      5826        58  POPC      C24            29.2799812886       31.6750789432        9.5945400312  MEMB      58              0.0000000000
      5827        58  POPC      H4R            28.2596556940       31.9424176359        9.9435193145  MEMB      58              0.0000000000
      5828        58  POPC      H4S            29.2346689573       30.5822726662        9.3994953594  MEMB      58              0.0000000000
      5829        58  POPC      C25            29.2773655744       32.5102136590        8.3278892825  MEMB      58              0.0000000000
      5830        58  POPC      H5R            29.6223069747       33.5611655352        8.4319867805  MEMB      58              0.0000000000
      5831        58  POPC      H5S            28.2087051001       32.7724230114        8.1744868721  MEMB      58              0.0000000000
      5832        58  POPC      C26            29.8491353063       31.7739826478        7.1397282877  MEMB      58              0.0000000000
      5833        58  POPC      H6R            29.3867053022       30.7694333357        7.0331450590  MEMB      58              0.0000000000
      5834        58  POPC      H6S            30.9565665387       31.6950404473        7.1807801725  MEMB      58              0.0000000000
      5835        58  POPC      C27            29.6286250821       32.6042118314        5.8678411945  MEMB      58              0.0000000000
      5836        58  POPC      H7R            30.0852576928       33.6163731808        5.9044075832  MEMB      58              0.0000000000
      5837        58  POPC      H7S            28.5527907769       32.7273563148        5.6193719562  MEMB      58              0.0000000000
      5838        58  POPC      C28            30.1541137205       31.8027819467        4.6912724682  MEMB      58              0.0000000000
      5839        58  POPC      H8R            29.9301202414       32.3067398547        3.7268170291  MEMB      58              0.0000000000
      5840        58  POPC      H8S            29.5907782471       30.8473114134        4.6276307381  MEMB      58              0.0000000000
      5841        58  POPC      C29            31.6151962217       31.5959713510        4.7511499449  MEMB      58              0.0000000000
      5842        58  POPC      H91            32.0598952921       30.7939424887        5.3585980337  MEMB      58              0.0000000000
      5843        58  POPC      C210           32.5469420588       32.4325090498        4.2024418486  MEMB      58              0.0000000000
      5844        58  POPC      H101           33.6340411986       32.3569887872        4.3524832494  MEMB      58              0.0000000000
      5845        58  POPC      C211           32.2536509237       33.7359880329        3.5026925500  MEMB      58              0.0000000000
      5846        58  POPC      H11R           31.5921869602       34.3354408250        4.1640879376  MEMB      58              0.0000000000
      5847        58  POPC      H11S           31.6677569379       33.5543788035        2.5763743232  MEMB      58              0.0000000000
      5848        58  POPC      C212           33.5043655442       34.5309468396        3.1192625395  MEMB      58              0.0000000000
      5849        58  POPC      H12R           34.1819481675       34.5845610459        3.9980840476  MEMB      58              0.0000000000
      5850        58  POPC      H12S           33.2577879381       35.5453635499        2.7391573485  MEMB      58              0.0000000000
      5851        58  POPC      C213           34.5006496741       33.8704266406        2.0655337064  MEMB      58              0.0000000000
      5852        58  POPC      H13R           34.5972084326       32.8232599967        2.4239190406  MEMB      58              0.0000000000
      5853        58  POPC      H13S           35.4640162660       34.4014015602        1.9096129788  MEMB      58              0.0000000000
      5854        58  POPC      C214           33.9226567408       33.7917387573        0.6303832951  MEMB      58              0.0000000000
      5855        58  POPC      H14R           33.6036589054       34.8424289942        0.4612357684  MEMB      58              0.0000000000
      5856        58  POPC      H14S           33.0485668369       33.1062445620        0.6107381402  MEMB      58              0.0000000000
      5857        58  POPC      C215           34.8986517673       33.3010367846       -0.4047173657  MEMB      58              0.0000000000
      5858        58  POPC      H15R           35.8944648010       33.6404249250       -0.0476557676  MEMB      58              0.0000000000
      5859        58  POPC      H15S           34.6323790927       33.8231596557       -1.3485434298  MEMB      58              0.0000000000
      5860        58  POPC      C216           34.8273603328       31.7541625365       -0.7754414437  MEMB      58              0.0000000000
      5861        58  POPC      H16R           33.7878324397       31.5420908751       -1.1051818330  MEMB      58              0.0000000000
      5862        58  POPC      H16S           34.8640735806       31.1395097476        0.1493144598  MEMB      58              0.0000000000
      5863        58  POPC      C217           35.9146755396       31.3007072975       -1.7637251467  MEMB      58              0.0000000000
      5864        58  POPC      H17R           36.9071932559       31.3074440593       -1.2645412695  MEMB      58              0.0000000000
      5865        58  POPC      H17S           35.9532204137       31.9499461492       -2.6644600409  MEMB      58              0.0000000000
      5866        58  POPC      C218           35.6530152325       29.8851483212       -2.3835033477  MEMB      58              0.0000000000
      5867        58  POPC      H18R           34.5734388450       29.6238299017       -2.4069226880  MEMB      58              0.0000000000
      5868        58  POPC      H18S           36.1047950675       29.0258219053       -1.8433425944  MEMB      58              0.0000000000
      5869        58  POPC      H18T           36.0381855929       29.9320493505       -3.4245432358  MEMB      58              0.0000000000
      5870        58  POPC      C33            33.5421032864       27.1441541528       12.4434126427  MEMB      58              0.0000000000
      5871        58  POPC      H3X            34.6326981870       27.0871255947       12.6475492666  MEMB      58              0.0000000000
      5872        58  POPC      H3Y            33.4069829479       27.7845365716       11.5456520755  MEMB      58              0.0000000000
      5873        58  POPC      C34            32.8784888830       25.8235226678       12.1193573314  MEMB      58              0.0000000000
      5874        58  POPC      H4X            31.8323256098       26.0144630406       11.7977904483  MEMB      58              0.0000000000
      5875        58  POPC      H4Y            32.8229740233       25.1818765494       13.0246359368  MEMB      58              0.0000000000
      5876        58  POPC      C35            33.4151499507       25.0147621686       11.0016311022  MEMB      58              0.0000000000
      5877        58  POPC      H5X            32.6969418977       24.2604151232       10.6150321630  MEMB      58              0.0000000000
      5878        58  POPC      H5Y            34.2743252863       24.3884103832       11.3238458753  MEMB      58              0.0000000000
      5879        58  POPC      C36            33.9598925955       25.7503026337        9.7099055174  MEMB      58              0.0000000000
      5880        58  POPC      H6X            34.5019574283       25.0332681896        9.0569517326  MEMB      58              0.0000000000
      5881        58  POPC      H6Y            34.7831292358       26.4615559454        9.9351184394  MEMB      58              0.0000000000
      5882        58  POPC      C37            32.8118260235       26.3465935119        8.9813244609  MEMB      58              0.0000000000
      5883        58  POPC      H7X            32.1639044546       26.9413956516        9.6600952573  MEMB      58              0.0000000000
      5884        58  POPC      H7Y            32.1645630920       25.5828514931        8.4995888165  MEMB      58              0.0000000000
      5885        58  POPC      C38            33.1587526957       27.2147558813        7.7164242476  MEMB      58              0.0000000000
      5886        58  POPC      H8X            33.1750878229       26.4969590195        6.8685912941  MEMB      58              0.0000000000
      5887        58  POPC      H8Y            34.1635407063       27.6614102392        7.8752381382  MEMB      58              0.0000000000
      5888        58  POPC      C39            32.2386153367       28.3783014388        7.4819781787  MEMB      58              0.0000000000
      5889        58  POPC      H9X            32.5443469113       28.9514331845        6.5806632828  MEMB      58              0.0000000000
      5890        58  POPC      H9Y            32.3241527753       29.1539768364        8.2727572751  MEMB      58              0.0000000000
      5891        58  POPC      C310           30.7967494097       27.9903392276        7.2883114838  MEMB      58              0.0000000000
      5892        58  POPC      H10X           30.1945273002       28.8582729720        6.9443047802  MEMB      58              0.0000000000
      5893        58  POPC      H10Y           30.4147829190       27.5868684833        8.2504098437  MEMB      58              0.0000000000
      5894        58  POPC      C311           30.6228668895       27.0143884891        6.1536778907  MEMB      58              0.0000000000
      5895        58  POPC      H11X           30.8597522155       25.9994290171        6.5384678259  MEMB      58              0.0000000000
      5896        58  POPC      H11Y           31.3262265233       27.3663793996        5.3690069161  MEMB      58              0.0000000000
      5897        58  POPC      C312           29.2454813778       27.0210930529        5.4340798301  MEMB      58              0.0000000000
      5898        58  POPC      H12X           29.0993577116       28.0890703822        5.1650195278  MEMB      58              0.0000000000
      5899        58  POPC      H12Y           28.3727370628       26.6422385366        6.0077585547  MEMB      58              0.0000000000
      5900        58  POPC      C313           29.2834258807       26.1914421964        4.0859479363  MEMB      58              0.0000000000
      5901        58  POPC      H13X           28.2613455628       25.8311421715        3.8412916336  MEMB      58              0.0000000000
      5902        58  POPC      H13Y           30.0510668970       25.3964655338        4.2002298283  MEMB      58              0.0000000000
      5903        58  POPC      C314           29.5894276117       27.1007266587        2.8661440180  MEMB      58              0.0000000000
      5904        58  POPC      H14X           29.8207404891       26.5631642002        1.9217694870  MEMB      58              0.0000000000
      5905        58  POPC      H14Y           30.5194572957       27.5928070113        3.2228268544  MEMB      58              0.0000000000
      5906        58  POPC      C315           28.5262824693       28.1885207635        2.5885690496  MEMB      58              0.0000000000
      5907        58  POPC      H15X           28.2735365784       28.8285683763        3.4607954362  MEMB      58              0.0000000000
      5908        58  POPC      H15Y           27.5921625764       27.6305154219        2.3641341173  MEMB      58              0.0000000000
      5909        58  POPC      C316           28.9229872710       29.0566555737        1.4218822069  MEMB      58              0.0000000000
      5910        58  POPC      H16X           29.9603776862       29.4405445730        1.5256679297  MEMB      58              0.0000000000
      5911        58  POPC      H16Y           28.2813698012       29.9636524611        1.4241308461  MEMB      58              0.0000000000
      5912        58  POPC      H16Z           28.8096269248       28.4748622782        0.4822085919  MEMB      58              0.0000000000
      5913        59  POPC      N             -31.1705712504       29.9751958595       20.0085320445  MEMB      59              0.0000000000
      5914        59  POPC      C12           -31.5235596371       28.5612106069       19.5171531500  MEMB      59              0.0000000000
      5915        59  POPC      H12A          -30.7589504932       27.9515147916       19.9754587476  MEMB      59              0.0000000000
      5916        59  POPC      H12B          -31.3705279020       28.5428543794       18.4482077327  MEMB      59              0.0000000000
      5917        59  POPC      C13           -31.3952714533       30.0774295422       21.4153670322  MEMB      59              0.0000000000
      5918        59  POPC      H13A          -31.1612591806       31.0394759497       21.8467661538  MEMB      59              0.0000000000
      5919        59  POPC      H13B          -32.4587604751       29.8934420825       21.4546066658  MEMB      59              0.0000000000
      5920        59  POPC      H13C          -30.6466709940       29.4434903671       21.8671618846  MEMB      59              0.0000000000
      5921        59  POPC      C14           -29.7001935326       30.1299113499       19.6942581502  MEMB      59              0.0000000000
      5922        59  POPC      H14A          -29.5413261234       29.9728186064       18.6376205340  MEMB      59              0.0000000000
      5923        59  POPC      H14B          -29.4664822533       31.1519895011       19.9533630202  MEMB      59              0.0000000000
      5924        59  POPC      H14C          -29.1841410776       29.4140875632       20.3169023210  MEMB      59              0.0000000000
      5925        59  POPC      C15           -32.0384391913       30.9973004022       19.3283766219  MEMB      59              0.0000000000
      5926        59  POPC      H15A          -33.0397658156       31.0214811880       19.7323076729  MEMB      59              0.0000000000
      5927        59  POPC      H15B          -32.0879624180       30.8850409115       18.2553690752  MEMB      59              0.0000000000
      5928        59  POPC      H15C          -31.6637272636       32.0097040614       19.3604678872  MEMB      59              0.0000000000
      5929        59  POPC      C11           -32.9361298802       27.8760687967       19.8086417564  MEMB      59              0.0000000000
      5930        59  POPC      H11A          -33.1215524490       27.9269754420       20.9028757808  MEMB      59              0.0000000000
      5931        59  POPC      H11B          -32.8850289148       26.8200950366       19.4671318289  MEMB      59              0.0000000000
      5932        59  POPC      P             -34.5907002662       28.0955452879       17.8132674586  MEMB      59              0.0000000000
      5933        59  POPC      O13           -35.6810771948       27.0998445783       17.8442505057  MEMB      59              0.0000000000
      5934        59  POPC      O14           -33.3562818133       27.7908598442       17.0062836954  MEMB      59              0.0000000000
      5935        59  POPC      O12           -34.0927323933       28.5636883079       19.2490909855  MEMB      59              0.0000000000
      5936        59  POPC      O11           -35.2622533473       29.4396733984       17.3147785519  MEMB      59              0.0000000000
      5937        59  POPC      C1            -36.0427788954       30.2424458223       18.2645970636  MEMB      59              0.0000000000
      5938        59  POPC      HA            -35.4469471396       30.7230601816       19.0697774318  MEMB      59              0.0000000000
      5939        59  POPC      HB            -36.9029329423       29.6602509859       18.6589384337  MEMB      59              0.0000000000
      5940        59  POPC      C2            -36.5583726039       31.4341327403       17.3823245727  MEMB      59              0.0000000000
      5941        59  POPC      HS            -37.4020782128       31.9015557119       17.9336839948  MEMB      59              0.0000000000
      5942        59  POPC      O21           -37.0436399171       31.0301068850       16.0006832455  MEMB      59              0.0000000000
      5943        59  POPC      C21           -38.0421827614       30.2010315085       15.8196981436  MEMB      59              0.0000000000
      5944        59  POPC      O22           -38.8155904238       29.8860749608       16.6681805218  MEMB      59              0.0000000000
      5945        59  POPC      C22           -38.1254934900       29.8663123197       14.2894313061  MEMB      59              0.0000000000
      5946        59  POPC      H2R           -38.5280888646       30.7634125275       13.7722761982  MEMB      59              0.0000000000
      5947        59  POPC      H2S           -38.9547835331       29.1339151476       14.1884675093  MEMB      59              0.0000000000
      5948        59  POPC      C3            -35.4401151241       32.4598491436       17.0777955224  MEMB      59              0.0000000000
      5949        59  POPC      HX            -35.3316917434       33.0506395704       18.0124247062  MEMB      59              0.0000000000
      5950        59  POPC      HY            -35.7679353362       33.2911204099       16.4176113929  MEMB      59              0.0000000000
      5951        59  POPC      O31           -34.1995140548       31.8290446594       16.6665628769  MEMB      59              0.0000000000
      5952        59  POPC      C31           -33.9344871595       31.6768900510       15.4716825104  MEMB      59              0.0000000000
      5953        59  POPC      O32           -34.5748068992       32.1409542718       14.5224436736  MEMB      59              0.0000000000
      5954        59  POPC      C32           -32.7258196346       30.7576612707       15.3554631063  MEMB      59              0.0000000000
      5955        59  POPC      H2X           -32.7247591284       30.0100734460       16.1773099802  MEMB      59              0.0000000000
      5956        59  POPC      H2Y           -31.8161519908       31.3617553139       15.5601489086  MEMB      59              0.0000000000
      5957        59  POPC      C23           -36.8613880125       29.2291412765       13.7132382921  MEMB      59              0.0000000000
      5958        59  POPC      H3R           -36.6021560905       28.3692044869       14.3671711512  MEMB      59              0.0000000000
      5959        59  POPC      H3S           -35.9735680844       29.8955091041       13.6679545015  MEMB      59              0.0000000000
      5960        59  POPC      C24           -37.0835144463       28.8995047289       12.2225680685  MEMB      59              0.0000000000
      5961        59  POPC      H4R           -37.5174022763       29.7866817805       11.7136679558  MEMB      59              0.0000000000
      5962        59  POPC      H4S           -37.7916483375       28.0437907698       12.2474914959  MEMB      59              0.0000000000
      5963        59  POPC      C25           -35.7967883932       28.6205117341       11.5089744484  MEMB      59              0.0000000000
      5964        59  POPC      H5R           -35.1243239184       29.5048109208       11.5202669751  MEMB      59              0.0000000000
      5965        59  POPC      H5S           -36.2065272849       28.6545955551       10.4768539089  MEMB      59              0.0000000000
      5966        59  POPC      C26           -35.2079265898       27.2482468612       11.7135742902  MEMB      59              0.0000000000
      5967        59  POPC      H6R           -36.0228990600       26.5202490579       11.5131748585  MEMB      59              0.0000000000
      5968        59  POPC      H6S           -35.0244433088       27.0400516651       12.7893575872  MEMB      59              0.0000000000
      5969        59  POPC      C27           -33.9358389799       26.8843267088       10.9568926296  MEMB      59              0.0000000000
      5970        59  POPC      H7R           -33.0443740135       27.3606387404       11.4181277456  MEMB      59              0.0000000000
      5971        59  POPC      H7S           -33.8787650629       27.3317086176        9.9415532819  MEMB      59              0.0000000000
      5972        59  POPC      C28           -33.6952183614       25.3483305521       11.0514019607  MEMB      59              0.0000000000
      5973        59  POPC      H8R           -34.5354952041       24.7816670072       10.5962664277  MEMB      59              0.0000000000
      5974        59  POPC      H8S           -33.6129623163       25.0023483633       12.1039465876  MEMB      59              0.0000000000
      5975        59  POPC      C29           -32.3508543216       25.1639808557       10.3758408138  MEMB      59              0.0000000000
      5976        59  POPC      H91           -31.6271642370       25.8163422616       10.8864266282  MEMB      59              0.0000000000
      5977        59  POPC      C210          -32.0092970744       24.5570774122        9.2281014821  MEMB      59              0.0000000000
      5978        59  POPC      H101          -30.9877260517       24.7248835292        8.8563038068  MEMB      59              0.0000000000
      5979        59  POPC      C211          -32.9647384036       23.8307213151        8.3751935864  MEMB      59              0.0000000000
      5980        59  POPC      H11R          -34.0196418635       24.0965067901        8.6007103298  MEMB      59              0.0000000000
      5981        59  POPC      H11S          -32.8952541027       22.7761480191        8.7177839111  MEMB      59              0.0000000000
      5982        59  POPC      C212          -32.7793932640       23.9906223005        6.8784167399  MEMB      59              0.0000000000
      5983        59  POPC      H12R          -33.3123930188       23.1801214385        6.3368250809  MEMB      59              0.0000000000
      5984        59  POPC      H12S          -31.7156071022       24.0053764493        6.5583195518  MEMB      59              0.0000000000
      5985        59  POPC      C213          -33.3205929869       25.3393030883        6.2534825030  MEMB      59              0.0000000000
      5986        59  POPC      H13R          -32.4604228563       25.9971695747        6.5017567591  MEMB      59              0.0000000000
      5987        59  POPC      H13S          -34.2398204430       25.6017300510        6.8195872728  MEMB      59              0.0000000000
      5988        59  POPC      C214          -33.4902543519       25.3355707290        4.7424402637  MEMB      59              0.0000000000
      5989        59  POPC      H14R          -34.2187730187       24.5506831822        4.4465791179  MEMB      59              0.0000000000
      5990        59  POPC      H14S          -32.4888269164       25.1261545776        4.3093019294  MEMB      59              0.0000000000
      5991        59  POPC      C215          -34.0059960670       26.6744084795        4.0833036921  MEMB      59              0.0000000000
      5992        59  POPC      H15R          -33.3239385948       27.5409262514        4.2184532472  MEMB      59              0.0000000000
      5993        59  POPC      H15S          -35.0162769554       26.8634277298        4.5051156041  MEMB      59              0.0000000000
      5994        59  POPC      C216          -34.1871456788       26.3567027438        2.5956887417  MEMB      59              0.0000000000
      5995        59  POPC      H16R          -34.9018010238       25.5061285448        2.6062864170  MEMB      59              0.0000000000
      5996        59  POPC      H16S          -33.2367043218       25.9685974991        2.1710045763  MEMB      59              0.0000000000
      5997        59  POPC      C217          -34.7187361296       27.5946803382        1.8007913719  MEMB      59              0.0000000000
      5998        59  POPC      H17R          -34.2353385692       28.5162739274        2.1897821961  MEMB      59              0.0000000000
      5999        59  POPC      H17S          -35.8017240950       27.8370361718        1.8529608299  MEMB      59              0.0000000000
      6000        59  POPC      C218          -34.4485025010       27.5864424171        0.2397292633  MEMB      59              0.0000000000
      6001        59  POPC      H18R          -33.3993359854       27.2749778510        0.0485210534  MEMB      59              0.0000000000
      6002        59  POPC      H18S          -34.6114573930       28.6207249233       -0.1317909756  MEMB      59              0.0000000000
      6003        59  POPC      H18T          -35.2188526940       26.9474588315       -0.2425373965  MEMB      59              0.0000000000
      6004        59  POPC      C33           -32.6380974929       30.0872093882       13.9823149737  MEMB      59              0.0000000000
      6005        59  POPC      H3X           -33.6214463809       29.8136421454       13.5435588466  MEMB      59              0.0000000000
      6006        59  POPC      H3Y           -31.9522018024       29.2160156792       14.0522402981  MEMB      59              0.0000000000
      6007        59  POPC      C34           -31.9126850528       30.9219361647       12.9365356382  MEMB      59              0.0000000000
      6008        59  POPC      H4X           -30.8632319021       30.5933106641       12.7785028659  MEMB      59              0.0000000000
      6009        59  POPC      H4Y           -31.9897024903       31.9746343308       13.2832574998  MEMB      59              0.0000000000
      6010        59  POPC      C35           -32.5365852815       30.9142162109       11.5240568451  MEMB      59              0.0000000000
      6011        59  POPC      H5X           -33.5434667499       31.3830052675       11.4967181474  MEMB      59              0.0000000000
      6012        59  POPC      H5Y           -32.8749370633       29.9204897369       11.1602619997  MEMB      59              0.0000000000
      6013        59  POPC      C36           -31.7510243133       31.6282624227       10.4610093969  MEMB      59              0.0000000000
      6014        59  POPC      H6X           -31.1088514983       30.8298060231       10.0315887074  MEMB      59              0.0000000000
      6015        59  POPC      H6Y           -31.0706168684       32.4261698607       10.8280391798  MEMB      59              0.0000000000
      6016        59  POPC      C37           -32.5864048029       32.0909078736        9.2417433835  MEMB      59              0.0000000000
      6017        59  POPC      H7X           -32.1155986421       32.6774602987        8.4240516794  MEMB      59              0.0000000000
      6018        59  POPC      H7Y           -33.3169532810       32.8138907794        9.6635438808  MEMB      59              0.0000000000
      6019        59  POPC      C38           -33.3654789888       30.8924529888        8.5089185654  MEMB      59              0.0000000000
      6020        59  POPC      H8X           -33.9297255656       30.2997962213        9.2603867331  MEMB      59              0.0000000000
      6021        59  POPC      H8Y           -32.5152604904       30.2571852079        8.1804609766  MEMB      59              0.0000000000
      6022        59  POPC      C39           -34.3633357984       31.2068842616        7.4324706853  MEMB      59              0.0000000000
      6023        59  POPC      H9X           -35.1934470902       31.7808850333        7.8969694291  MEMB      59              0.0000000000
      6024        59  POPC      H9Y           -34.8468623345       30.2397906369        7.1770234230  MEMB      59              0.0000000000
      6025        59  POPC      C310          -33.8317030389       31.8128192593        6.1220475720  MEMB      59              0.0000000000
      6026        59  POPC      H10X          -32.8465386161       31.3365168253        5.9299328219  MEMB      59              0.0000000000
      6027        59  POPC      H10Y          -33.6082092821       32.8748349530        6.3597333115  MEMB      59              0.0000000000
      6028        59  POPC      C311          -34.8692147727       31.5761210453        5.0297073459  MEMB      59              0.0000000000
      6029        59  POPC      H11X          -35.7461475922       32.2313744409        5.2193191505  MEMB      59              0.0000000000
      6030        59  POPC      H11Y          -35.2943147687       30.5526615998        5.1080766178  MEMB      59              0.0000000000
      6031        59  POPC      C312          -34.3947833343       31.9511778309        3.6179334734  MEMB      59              0.0000000000
      6032        59  POPC      H12X          -33.7915003508       31.1229934982        3.1884212063  MEMB      59              0.0000000000
      6033        59  POPC      H12Y          -33.6801105740       32.7793989559        3.8118777092  MEMB      59              0.0000000000
      6034        59  POPC      C313          -35.4534656972       32.3702532388        2.6038847143  MEMB      59              0.0000000000
      6035        59  POPC      H13X          -34.9606485778       33.0197384598        1.8491527286  MEMB      59              0.0000000000
      6036        59  POPC      H13Y          -36.2561668826       32.9476445959        3.1104533528  MEMB      59              0.0000000000
      6037        59  POPC      C314          -36.0807300748       31.1827235005        1.8660248802  MEMB      59              0.0000000000
      6038        59  POPC      H14X          -36.6156249353       30.4552216041        2.5132885895  MEMB      59              0.0000000000
      6039        59  POPC      H14Y          -35.2616961001       30.6269286552        1.3614489608  MEMB      59              0.0000000000
      6040        59  POPC      C315          -37.1612401742       31.5682723081        0.8127447976  MEMB      59              0.0000000000
      6041        59  POPC      H15X          -37.9503807602       32.0436910972        1.4336765949  MEMB      59              0.0000000000
      6042        59  POPC      H15Y          -37.5518794378       30.6661438806        0.2951679129  MEMB      59              0.0000000000
      6043        59  POPC      C316          -36.6185661050       32.4869084814       -0.3311909283  MEMB      59              0.0000000000
      6044        59  POPC      H16X          -36.1119252302       31.9646544874       -1.1707674576  MEMB      59              0.0000000000
      6045        59  POPC      H16Y          -36.0770528767       33.4301115395       -0.1043584535  MEMB      59              0.0000000000
      6046        59  POPC      H16Z          -37.5092383461       32.8503511608       -0.8870098180  MEMB      59              0.0000000000
      6047        60  POPC      N             -40.7654029090       23.4616429647       18.4430678517  MEMB      60              0.0000000000
      6048        60  POPC      C12           -39.2491604509       23.1044085370       18.3730002691  MEMB      60              0.0000000000
      6049        60  POPC      H12A          -38.6293501781       23.9881295476       18.4086710750  MEMB      60              0.0000000000
      6050        60  POPC      H12B          -39.1747850092       22.9076915790       17.3136746493  MEMB      60              0.0000000000
      6051        60  POPC      C13           -41.1825887360       24.6864146498       17.5412283770  MEMB      60              0.0000000000
      6052        60  POPC      H13A          -41.0113597752       24.5847223989       16.4797487098  MEMB      60              0.0000000000
      6053        60  POPC      H13B          -42.2096432797       24.9860637542       17.6887727422  MEMB      60              0.0000000000
      6054        60  POPC      H13C          -40.5196491888       25.4323863339       17.9540689291  MEMB      60              0.0000000000
      6055        60  POPC      C14           -41.6266225017       22.2791200556       17.8346260553  MEMB      60              0.0000000000
      6056        60  POPC      H14A          -41.5881557648       21.5760823105       18.6535632881  MEMB      60              0.0000000000
      6057        60  POPC      H14B          -42.6022856202       22.7415906791       17.8591680432  MEMB      60              0.0000000000
      6058        60  POPC      H14C          -41.2480385358       21.9597362033       16.8749031874  MEMB      60              0.0000000000
      6059        60  POPC      C15           -41.1747106973       23.7092154193       19.8446195297  MEMB      60              0.0000000000
      6060        60  POPC      H15A          -40.6019768667       24.5593012485       20.1848105235  MEMB      60              0.0000000000
      6061        60  POPC      H15B          -40.9549780907       22.8346833306       20.4390194947  MEMB      60              0.0000000000
      6062        60  POPC      H15C          -42.2198353023       23.9813474102       19.8522690155  MEMB      60              0.0000000000
      6063        60  POPC      C11           -38.6411397524       22.0352510471       19.3822882685  MEMB      60              0.0000000000
      6064        60  POPC      H11A          -38.3445352235       22.5826727703       20.3024383352  MEMB      60              0.0000000000
      6065        60  POPC      H11B          -37.6856512825       21.6781549520       18.9420098951  MEMB      60              0.0000000000
      6066        60  POPC      P             -38.9250098528       19.4265616405       19.6001721833  MEMB      60              0.0000000000
      6067        60  POPC      O13           -40.0279878675       18.4316242214       19.6402410804  MEMB      60              0.0000000000
      6068        60  POPC      O14           -37.8563035167       19.3130545670       20.5883319559  MEMB      60              0.0000000000
      6069        60  POPC      O12           -39.4490843398       20.9231102423       19.6380214236  MEMB      60              0.0000000000
      6070        60  POPC      O11           -38.3267410414       19.5379452620       18.1144030194  MEMB      60              0.0000000000
      6071        60  POPC      C1            -37.1836214955       18.7045357634       17.8364423329  MEMB      60              0.0000000000
      6072        60  POPC      HA            -37.4983873250       17.6395144262       17.8052527775  MEMB      60              0.0000000000
      6073        60  POPC      HB            -36.3302913870       18.8003110000       18.5414074164  MEMB      60              0.0000000000
      6074        60  POPC      C2            -36.5661689883       19.1430185513       16.5073790652  MEMB      60              0.0000000000
      6075        60  POPC      HS            -35.6515147498       18.5383398438       16.3282359136  MEMB      60              0.0000000000
      6076        60  POPC      O21           -36.2484844361       20.5334871319       16.6555260601  MEMB      60              0.0000000000
      6077        60  POPC      C21           -35.1932270943       20.9519330811       15.9572225956  MEMB      60              0.0000000000
      6078        60  POPC      O22           -34.3703455890       20.2738346798       15.4353627142  MEMB      60              0.0000000000
      6079        60  POPC      C22           -35.1214288148       22.5141506195       16.1431856801  MEMB      60              0.0000000000
      6080        60  POPC      H2R           -34.0642155699       22.8540505104       16.1761892659  MEMB      60              0.0000000000
      6081        60  POPC      H2S           -35.7174222438       22.8442045867       17.0207831035  MEMB      60              0.0000000000
      6082        60  POPC      C3            -37.5590275636       19.0093837725       15.3509868506  MEMB      60              0.0000000000
      6083        60  POPC      HX            -37.8974395561       17.9677021452       15.1647143228  MEMB      60              0.0000000000
      6084        60  POPC      HY            -37.0305647073       19.3703749409       14.4428381844  MEMB      60              0.0000000000
      6085        60  POPC      O31           -38.5809674080       19.9851789526       15.5244411352  MEMB      60              0.0000000000
      6086        60  POPC      C31           -39.3598772859       19.9824765758       14.4488086998  MEMB      60              0.0000000000
      6087        60  POPC      O32           -39.2832328231       19.2630647361       13.4922337627  MEMB      60              0.0000000000
      6088        60  POPC      C32           -40.4356871988       21.1053913434       14.6874527790  MEMB      60              0.0000000000
      6089        60  POPC      H2X           -39.9752411685       21.9498415055       15.2435232358  MEMB      60              0.0000000000
      6090        60  POPC      H2Y           -41.1544774666       20.6288702832       15.3878736776  MEMB      60              0.0000000000
      6091        60  POPC      C23           -35.7531705134       23.1031498788       14.9190528107  MEMB      60              0.0000000000
      6092        60  POPC      H3R           -36.8235802219       22.8539099778       15.0816065623  MEMB      60              0.0000000000
      6093        60  POPC      H3S           -35.3332832374       22.5276261741       14.0665339575  MEMB      60              0.0000000000
      6094        60  POPC      C24           -35.5179647796       24.6379572207       14.8412229449  MEMB      60              0.0000000000
      6095        60  POPC      H4R           -34.4258067498       24.8255639747       14.7617515881  MEMB      60              0.0000000000
      6096        60  POPC      H4S           -35.8468084728       24.9144329259       15.8657933803  MEMB      60              0.0000000000
      6097        60  POPC      C25           -36.2558222314       25.4103679734       13.7753133411  MEMB      60              0.0000000000
      6098        60  POPC      H5R           -35.9635209898       26.4751782672       13.8980343512  MEMB      60              0.0000000000
      6099        60  POPC      H5S           -37.3421136230       25.3104480098       13.9858067631  MEMB      60              0.0000000000
      6100        60  POPC      C26           -35.8579211864       24.9029271391       12.4114265388  MEMB      60              0.0000000000
      6101        60  POPC      H6R           -36.3469069029       23.9094692140       12.3205683387  MEMB      60              0.0000000000
      6102        60  POPC      H6S           -34.7666796624       24.6950309716       12.4285308856  MEMB      60              0.0000000000
      6103        60  POPC      C27           -36.2135515204       25.7070579577       11.1770164387  MEMB      60              0.0000000000
      6104        60  POPC      H7R           -35.5721928847       26.6105192482       11.2591007231  MEMB      60              0.0000000000
      6105        60  POPC      H7S           -37.2712252950       26.0413446902       11.2394639664  MEMB      60              0.0000000000
      6106        60  POPC      C28           -35.9916364655       24.9688824518        9.7697681563  MEMB      60              0.0000000000
      6107        60  POPC      H8R           -34.8833118483       25.0458050745        9.7651699102  MEMB      60              0.0000000000
      6108        60  POPC      H8S           -36.3673254583       25.7014174621        9.0237310960  MEMB      60              0.0000000000
      6109        60  POPC      C29           -36.3438982550       23.5263177883        9.4615115800  MEMB      60              0.0000000000
      6110        60  POPC      H91           -36.2537780494       22.8448415382       10.3202713411  MEMB      60              0.0000000000
      6111        60  POPC      C210          -36.5384386557       23.0519138148        8.2245841989  MEMB      60              0.0000000000
      6112        60  POPC      H101          -36.6643408811       21.9677830957        8.0874373215  MEMB      60              0.0000000000
      6113        60  POPC      C211          -36.5035702676       23.7488796768        6.9060304684  MEMB      60              0.0000000000
      6114        60  POPC      H11R          -35.9212799195       23.0962671389        6.2209342786  MEMB      60              0.0000000000
      6115        60  POPC      H11S          -36.0313017231       24.7451314091        7.0430193799  MEMB      60              0.0000000000
      6116        60  POPC      C212          -37.9176343097       24.0020583362        6.2715116925  MEMB      60              0.0000000000
      6117        60  POPC      H12R          -38.5381108131       24.7173939360        6.8525664773  MEMB      60              0.0000000000
      6118        60  POPC      H12S          -38.4699666233       23.0395568449        6.3248132773  MEMB      60              0.0000000000
      6119        60  POPC      C213          -37.8671398881       24.4194356759        4.8484858282  MEMB      60              0.0000000000
      6120        60  POPC      H13R          -37.1763274261       23.7635682010        4.2767023249  MEMB      60              0.0000000000
      6121        60  POPC      H13S          -37.3958564298       25.4239765230        4.7927125327  MEMB      60              0.0000000000
      6122        60  POPC      C214          -39.1929669745       24.5379114227        4.0269304725  MEMB      60              0.0000000000
      6123        60  POPC      H14R          -39.1614489639       25.1857911061        3.1249447203  MEMB      60              0.0000000000
      6124        60  POPC      H14S          -39.9209555080       25.1164637532        4.6349042207  MEMB      60              0.0000000000
      6125        60  POPC      C215          -39.7769825728       23.2329372128        3.5110084392  MEMB      60              0.0000000000
      6126        60  POPC      H15R          -39.9335359765       22.5321582521        4.3587823806  MEMB      60              0.0000000000
      6127        60  POPC      H15S          -38.9070453582       22.8252523581        2.9530464210  MEMB      60              0.0000000000
      6128        60  POPC      C216          -41.0073693303       23.1901613438        2.7019650202  MEMB      60              0.0000000000
      6129        60  POPC      H16R          -41.8542129994       23.4431309568        3.3751548837  MEMB      60              0.0000000000
      6130        60  POPC      H16S          -41.2849486391       22.1558507139        2.4062087004  MEMB      60              0.0000000000
      6131        60  POPC      C217          -41.0361651450       24.0970268377        1.4107051301  MEMB      60              0.0000000000
      6132        60  POPC      H17R          -40.5803251951       25.0815390501        1.6500085729  MEMB      60              0.0000000000
      6133        60  POPC      H17S          -42.0573195443       24.2469314582        0.9994944870  MEMB      60              0.0000000000
      6134        60  POPC      C218          -40.2482822970       23.3958491597        0.3050435120  MEMB      60              0.0000000000
      6135        60  POPC      H18R          -40.1255732504       24.1494761377       -0.5019944094  MEMB      60              0.0000000000
      6136        60  POPC      H18S          -40.7990378977       22.4694063381        0.0354262261  MEMB      60              0.0000000000
      6137        60  POPC      H18T          -39.2165855097       23.1719328173        0.6511418784  MEMB      60              0.0000000000
      6138        60  POPC      C33           -40.9589379702       21.5581595924       13.3025606124  MEMB      60              0.0000000000
      6139        60  POPC      H3X           -41.8356764866       22.2274233710       13.4357398282  MEMB      60              0.0000000000
      6140        60  POPC      H3Y           -41.3630457703       20.7095700014       12.7101812351  MEMB      60              0.0000000000
      6141        60  POPC      C34           -39.8674125528       22.2607006573       12.3969110072  MEMB      60              0.0000000000
      6142        60  POPC      H4X           -38.9338375279       21.6606127502       12.3454026969  MEMB      60              0.0000000000
      6143        60  POPC      H4Y           -39.6189746574       23.2245766267       12.8904111915  MEMB      60              0.0000000000
      6144        60  POPC      C35           -40.1509144191       22.6344355057       10.9842379870  MEMB      60              0.0000000000
      6145        60  POPC      H5X           -39.2272980697       23.1177069258       10.5999174221  MEMB      60              0.0000000000
      6146        60  POPC      H5Y           -40.9986224438       23.3517120074       10.9492148346  MEMB      60              0.0000000000
      6147        60  POPC      C36           -40.4479460933       21.4606179635        9.9934507681  MEMB      60              0.0000000000
      6148        60  POPC      H6X           -41.0989941072       20.6720960066       10.4278359607  MEMB      60              0.0000000000
      6149        60  POPC      H6Y           -39.4985279745       20.9173469593        9.7990728009  MEMB      60              0.0000000000
      6150        60  POPC      C37           -40.9813126096       22.0791010775        8.6596875968  MEMB      60              0.0000000000
      6151        60  POPC      H7X           -40.1241168610       22.5435132921        8.1269047241  MEMB      60              0.0000000000
      6152        60  POPC      H7Y           -41.5857435157       22.9581166255        8.9700351202  MEMB      60              0.0000000000
      6153        60  POPC      C38           -41.8167649657       21.1551467812        7.7693271765  MEMB      60              0.0000000000
      6154        60  POPC      H8X           -42.3938413921       21.7805855302        7.0550927949  MEMB      60              0.0000000000
      6155        60  POPC      H8Y           -42.6415935720       20.7832548704        8.4140550013  MEMB      60              0.0000000000
      6156        60  POPC      C39           -40.9445228736       19.9888057252        7.2684217379  MEMB      60              0.0000000000
      6157        60  POPC      H9X           -41.5841546947       19.4004880383        6.5762696972  MEMB      60              0.0000000000
      6158        60  POPC      H9Y           -40.6345880923       19.3647188944        8.1337407248  MEMB      60              0.0000000000
      6159        60  POPC      C310          -39.6534053090       20.3992599819        6.5130596907  MEMB      60              0.0000000000
      6160        60  POPC      H10X          -39.0968318409       21.1959981661        7.0513485915  MEMB      60              0.0000000000
      6161        60  POPC      H10Y          -39.8857026047       20.9254148574        5.5625225574  MEMB      60              0.0000000000
      6162        60  POPC      C311          -38.6948041711       19.0803291906        6.3538075594  MEMB      60              0.0000000000
      6163        60  POPC      H11X          -39.3417143809       18.1936075090        6.1818979011  MEMB      60              0.0000000000
      6164        60  POPC      H11Y          -38.1775091176       18.9960775517        7.3334136812  MEMB      60              0.0000000000
      6165        60  POPC      C312          -37.6928694565       19.2042395568        5.2219756013  MEMB      60              0.0000000000
      6166        60  POPC      H12X          -37.1265159305       18.2691849593        5.0238915759  MEMB      60              0.0000000000
      6167        60  POPC      H12Y          -37.0150779267       20.0468728576        5.4767088168  MEMB      60              0.0000000000
      6168        60  POPC      C313          -38.3771819703       19.4528639300        3.8251925783  MEMB      60              0.0000000000
      6169        60  POPC      H13X          -38.5513837390       20.5482463568        3.7610672508  MEMB      60              0.0000000000
      6170        60  POPC      H13Y          -39.4076695523       19.0480696752        3.7326826660  MEMB      60              0.0000000000
      6171        60  POPC      C314          -37.5829796170       19.2007802603        2.5558784411  MEMB      60              0.0000000000
      6172        60  POPC      H14X          -38.1116343175       19.6660986944        1.6966206110  MEMB      60              0.0000000000
      6173        60  POPC      H14Y          -37.4962044458       18.0932088820        2.5471254076  MEMB      60              0.0000000000
      6174        60  POPC      C315          -36.1256292101       19.6862847722        2.6969543266  MEMB      60              0.0000000000
      6175        60  POPC      H15X          -35.5602532912       19.5711196690        1.7475295402  MEMB      60              0.0000000000
      6176        60  POPC      H15Y          -35.5886108033       19.0578607626        3.4392592352  MEMB      60              0.0000000000
      6177        60  POPC      C316          -36.0935647906       21.2065085670        2.9803324808  MEMB      60              0.0000000000
      6178        60  POPC      H16X          -36.8728971034       21.6413231947        2.3185940282  MEMB      60              0.0000000000
      6179        60  POPC      H16Y          -35.1379965596       21.7598952304        2.8579671615  MEMB      60              0.0000000000
      6180        60  POPC      H16Z          -36.3429678439       21.3802158005        4.0489515872  MEMB      60              0.0000000000
      6181        61  POPC      N             -40.3647013541      -15.5705274004       19.0032946154  MEMB      61              0.0000000000
      6182        61  POPC      C12           -40.7696001297      -16.4013046180       17.7930423167  MEMB      61              0.0000000000
      6183        61  POPC      H12A          -40.2818636882      -16.0276687075       16.9048365541  MEMB      61              0.0000000000
      6184        61  POPC      H12B          -41.8362120131      -16.2828167501       17.6717993808  MEMB      61              0.0000000000
      6185        61  POPC      C13           -40.7695197236      -14.1991247435       18.7590044907  MEMB      61              0.0000000000
      6186        61  POPC      H13A          -41.7917524608      -14.1251788703       19.0995520382  MEMB      61              0.0000000000
      6187        61  POPC      H13B          -40.1969855698      -13.4615375017       19.3017471887  MEMB      61              0.0000000000
      6188        61  POPC      H13C          -40.7520975707      -13.8678269598       17.7312211996  MEMB      61              0.0000000000
      6189        61  POPC      C14           -41.0199447256      -16.0455582375       20.2878970790  MEMB      61              0.0000000000
      6190        61  POPC      H14A          -40.8802925347      -17.1050547944       20.4439879039  MEMB      61              0.0000000000
      6191        61  POPC      H14B          -40.5155693599      -15.4185277954       21.0082014258  MEMB      61              0.0000000000
      6192        61  POPC      H14C          -42.0690796203      -15.7976374260       20.2226969135  MEMB      61              0.0000000000
      6193        61  POPC      C15           -38.8415645011      -15.5550412212       19.0469016703  MEMB      61              0.0000000000
      6194        61  POPC      H15A          -38.4790300574      -15.0921989654       18.1409515475  MEMB      61              0.0000000000
      6195        61  POPC      H15B          -38.5544140233      -16.5956040518       19.0811606816  MEMB      61              0.0000000000
      6196        61  POPC      H15C          -38.4171314951      -15.0012933508       19.8712921589  MEMB      61              0.0000000000
      6197        61  POPC      C11           -40.1941212660      -17.8512348660       17.7710369630  MEMB      61              0.0000000000
      6198        61  POPC      H11A          -39.0906687142      -17.9259320751       17.8765535730  MEMB      61              0.0000000000
      6199        61  POPC      H11B          -40.4759580090      -18.2436458414       16.7705857169  MEMB      61              0.0000000000
      6200        61  POPC      P             -40.3477163296      -20.0133751532       19.3376507292  MEMB      61              0.0000000000
      6201        61  POPC      O13           -41.4568257305      -20.9653033284       19.6445082656  MEMB      61              0.0000000000
      6202        61  POPC      O14           -39.5053142964      -19.5800428693       20.4845870546  MEMB      61              0.0000000000
      6203        61  POPC      O12           -40.9020398727      -18.7518222561       18.6778689267  MEMB      61              0.0000000000
      6204        61  POPC      O11           -39.3898745929      -20.5782309606       18.1942078889  MEMB      61              0.0000000000
      6205        61  POPC      C1            -40.0199768547      -21.3812753973       17.2263125555  MEMB      61              0.0000000000
      6206        61  POPC      HA            -40.9942901276      -20.9066031271       16.9819343304  MEMB      61              0.0000000000
      6207        61  POPC      HB            -40.1913089899      -22.3699294227       17.7033130687  MEMB      61              0.0000000000
      6208        61  POPC      C2            -39.1890137154      -21.4745823347       15.8948213600  MEMB      61              0.0000000000
      6209        61  POPC      HS            -38.3431487271      -22.1660086688       16.0967197093  MEMB      61              0.0000000000
      6210        61  POPC      O21           -38.7518966336      -20.1350263192       15.6023264562  MEMB      61              0.0000000000
      6211        61  POPC      C21           -37.7314322377      -20.0247077787       14.7374962226  MEMB      61              0.0000000000
      6212        61  POPC      O22           -37.1501066131      -20.9555252700       14.2442823791  MEMB      61              0.0000000000
      6213        61  POPC      C22           -37.4908648556      -18.5922259456       14.5019617992  MEMB      61              0.0000000000
      6214        61  POPC      H2R           -36.7889978467      -18.2495766910       15.2920851160  MEMB      61              0.0000000000
      6215        61  POPC      H2S           -38.4553073910      -18.0407666982       14.4939582258  MEMB      61              0.0000000000
      6216        61  POPC      C3            -39.9988883050      -22.0308598202       14.6818800054  MEMB      61              0.0000000000
      6217        61  POPC      HX            -40.1975163868      -23.0945680410       14.9336588865  MEMB      61              0.0000000000
      6218        61  POPC      HY            -39.3306914879      -21.9708956804       13.7963073213  MEMB      61              0.0000000000
      6219        61  POPC      O31           -41.2778100521      -21.4157837971       14.5201177226  MEMB      61              0.0000000000
      6220        61  POPC      C31           -41.3849564310      -20.4662900059       13.5726394582  MEMB      61              0.0000000000
      6221        61  POPC      O32           -40.4062343526      -20.0879393734       12.8600029669  MEMB      61              0.0000000000
      6222        61  POPC      C32           -42.7940318664      -19.9345560209       13.7118836860  MEMB      61              0.0000000000
      6223        61  POPC      H2X           -43.0751171763      -19.7740937154       14.7746932293  MEMB      61              0.0000000000
      6224        61  POPC      H2Y           -43.5291773069      -20.6615642982       13.3052620949  MEMB      61              0.0000000000
      6225        61  POPC      C23           -36.6598299744      -18.4487021367       13.1885469148  MEMB      61              0.0000000000
      6226        61  POPC      H3R           -37.3195487683      -18.6785343606       12.3246779089  MEMB      61              0.0000000000
      6227        61  POPC      H3S           -35.8208286140      -19.1723110561       13.1061588115  MEMB      61              0.0000000000
      6228        61  POPC      C24           -36.0700479966      -16.9893312724       13.0755665653  MEMB      61              0.0000000000
      6229        61  POPC      H4R           -35.3003081235      -16.6278860921       13.7905345657  MEMB      61              0.0000000000
      6230        61  POPC      H4S           -36.8917031422      -16.2676568836       13.2714998672  MEMB      61              0.0000000000
      6231        61  POPC      C25           -35.7934787670      -16.6692983352       11.5916749066  MEMB      61              0.0000000000
      6232        61  POPC      H5R           -35.6054943628      -15.5864624735       11.4290400996  MEMB      61              0.0000000000
      6233        61  POPC      H5S           -36.6380922054      -16.8154129086       10.8848510524  MEMB      61              0.0000000000
      6234        61  POPC      C26           -34.6310000736      -17.5577715461       11.0109898640  MEMB      61              0.0000000000
      6235        61  POPC      H6R           -34.6774931777      -18.6471265308       11.2242160871  MEMB      61              0.0000000000
      6236        61  POPC      H6S           -33.7913484289      -17.2781536960       11.6826439383  MEMB      61              0.0000000000
      6237        61  POPC      C27           -34.3551605302      -17.2356856559        9.5610297246  MEMB      61              0.0000000000
      6238        61  POPC      H7R           -33.2601304600      -17.0568066623        9.5041791822  MEMB      61              0.0000000000
      6239        61  POPC      H7S           -34.8599542648      -16.3059721337        9.2217114675  MEMB      61              0.0000000000
      6240        61  POPC      C28           -34.4151180454      -18.4386736278        8.6865172565  MEMB      61              0.0000000000
      6241        61  POPC      H8R           -33.7718454767      -19.2253260052        9.1356270701  MEMB      61              0.0000000000
      6242        61  POPC      H8S           -34.0606932558      -18.1115222054        7.6856796579  MEMB      61              0.0000000000
      6243        61  POPC      C29           -35.8106956080      -18.9119086632        8.4957875563  MEMB      61              0.0000000000
      6244        61  POPC      H91           -36.2439469182      -19.4703507506        9.3386610220  MEMB      61              0.0000000000
      6245        61  POPC      C210          -36.5426265504      -18.9199203811        7.3388889185  MEMB      61              0.0000000000
      6246        61  POPC      H101          -37.6099363942      -19.1858468749        7.3504111360  MEMB      61              0.0000000000
      6247        61  POPC      C211          -36.1705611119      -18.3477378189        5.9809769555  MEMB      61              0.0000000000
      6248        61  POPC      H11R          -35.0847472711      -18.2516263958        5.7662859680  MEMB      61              0.0000000000
      6249        61  POPC      H11S          -36.6766539131      -17.3655812534        5.8645322132  MEMB      61              0.0000000000
      6250        61  POPC      C212          -36.6182639732      -19.2816665364        4.7264166959  MEMB      61              0.0000000000
      6251        61  POPC      H12R          -37.7180361711      -19.4377674763        4.7051019621  MEMB      61              0.0000000000
      6252        61  POPC      H12S          -36.1081975384      -20.2427906600        4.9509015901  MEMB      61              0.0000000000
      6253        61  POPC      C213          -36.2765225939      -18.6631974599        3.3611051375  MEMB      61              0.0000000000
      6254        61  POPC      H13R          -35.2656556490      -18.9773097939        3.0237594066  MEMB      61              0.0000000000
      6255        61  POPC      H13S          -36.2576156171      -17.5735019493        3.5768048864  MEMB      61              0.0000000000
      6256        61  POPC      C214          -37.3517189956      -18.7123694044        2.2187818350  MEMB      61              0.0000000000
      6257        61  POPC      H14R          -36.9690126215      -17.9758487918        1.4802740976  MEMB      61              0.0000000000
      6258        61  POPC      H14S          -38.3488995771      -18.4028166218        2.5984262705  MEMB      61              0.0000000000
      6259        61  POPC      C215          -37.6337532199      -20.1233026433        1.6045143676  MEMB      61              0.0000000000
      6260        61  POPC      H15R          -38.2828870677      -20.8054767706        2.1940760824  MEMB      61              0.0000000000
      6261        61  POPC      H15S          -36.6521391402      -20.6315254995        1.4928676197  MEMB      61              0.0000000000
      6262        61  POPC      C216          -38.1384904886      -20.0855793609        0.2010214519  MEMB      61              0.0000000000
      6263        61  POPC      H16R          -39.0466681496      -19.4462807702        0.1721826411  MEMB      61              0.0000000000
      6264        61  POPC      H16S          -38.2824288449      -21.1625872886       -0.0306156930  MEMB      61              0.0000000000
      6265        61  POPC      C217          -37.1423851344      -19.5857196354       -0.9216692481  MEMB      61              0.0000000000
      6266        61  POPC      H17R          -36.0792863423      -19.7424719690       -0.6395863851  MEMB      61              0.0000000000
      6267        61  POPC      H17S          -37.1534301759      -18.4748101039       -0.9127430415  MEMB      61              0.0000000000
      6268        61  POPC      C218          -37.4387178642      -20.0957969739       -2.3577150772  MEMB      61              0.0000000000
      6269        61  POPC      H18R          -36.6570734902      -19.6339565625       -2.9980707577  MEMB      61              0.0000000000
      6270        61  POPC      H18S          -38.4782011300      -19.8350827604       -2.6506721150  MEMB      61              0.0000000000
      6271        61  POPC      H18T          -37.3011011428      -21.1980016292       -2.3347478648  MEMB      61              0.0000000000
      6272        61  POPC      C33           -42.9099284399      -18.5371148684       12.9794328943  MEMB      61              0.0000000000
      6273        61  POPC      H3X           -43.9023444351      -18.0617888540       12.8261456567  MEMB      61              0.0000000000
      6274        61  POPC      H3Y           -42.5922983310      -18.7363022863       11.9336043705  MEMB      61              0.0000000000
      6275        61  POPC      C34           -42.0056193268      -17.3807539645       13.5334317313  MEMB      61              0.0000000000
      6276        61  POPC      H4X           -41.3090871443      -17.8103588237       14.2848327237  MEMB      61              0.0000000000
      6277        61  POPC      H4Y           -42.6886440669      -16.8088199215       14.1972765638  MEMB      61              0.0000000000
      6278        61  POPC      C35           -41.4309652338      -16.3849296747       12.3808819416  MEMB      61              0.0000000000
      6279        61  POPC      H5X           -41.0169638375      -15.6019974048       13.0516579887  MEMB      61              0.0000000000
      6280        61  POPC      H5Y           -42.2776204008      -16.0869423148       11.7261302160  MEMB      61              0.0000000000
      6281        61  POPC      C36           -40.3367497839      -17.2034225947       11.5141334565  MEMB      61              0.0000000000
      6282        61  POPC      H6X           -40.9623674972      -17.9781799378       11.0215139171  MEMB      61              0.0000000000
      6283        61  POPC      H6Y           -39.7377238991      -17.6897773874       12.3134758978  MEMB      61              0.0000000000
      6284        61  POPC      C37           -39.5193784817      -16.3276675300       10.5196872539  MEMB      61              0.0000000000
      6285        61  POPC      H7X           -38.7602279550      -17.0031778899       10.0705805845  MEMB      61              0.0000000000
      6286        61  POPC      H7Y           -38.8780876968      -15.6976057301       11.1724425399  MEMB      61              0.0000000000
      6287        61  POPC      C38           -40.2257861285      -15.5203660832        9.5227038805  MEMB      61              0.0000000000
      6288        61  POPC      H8X           -39.4018451015      -15.0861975935        8.9169474941  MEMB      61              0.0000000000
      6289        61  POPC      H8Y           -40.7213820320      -14.7284808768       10.1240546136  MEMB      61              0.0000000000
      6290        61  POPC      C39           -41.2101618270      -16.3050494445        8.6816713718  MEMB      61              0.0000000000
      6291        61  POPC      H9X           -41.5946069941      -15.5569220850        7.9558417566  MEMB      61              0.0000000000
      6292        61  POPC      H9Y           -41.9144225030      -16.5961116236        9.4901394743  MEMB      61              0.0000000000
      6293        61  POPC      C310          -40.6082004442      -17.5378923830        8.0689957668  MEMB      61              0.0000000000
      6294        61  POPC      H10X          -40.3242776983      -18.2303896347        8.8900660900  MEMB      61              0.0000000000
      6295        61  POPC      H10Y          -39.6284465760      -17.2626229269        7.6233164044  MEMB      61              0.0000000000
      6296        61  POPC      C311          -41.5288094265      -18.2711573134        7.0510213153  MEMB      61              0.0000000000
      6297        61  POPC      H11X          -41.9554553246      -17.4161327673        6.4842521570  MEMB      61              0.0000000000
      6298        61  POPC      H11Y          -42.2540564484      -18.9372537967        7.5654660537  MEMB      61              0.0000000000
      6299        61  POPC      C312          -40.7602963032      -19.1884145945        6.1122003763  MEMB      61              0.0000000000
      6300        61  POPC      H12X          -40.1162215085      -19.8203347140        6.7604025664  MEMB      61              0.0000000000
      6301        61  POPC      H12Y          -40.0431696058      -18.5914494726        5.5091392253  MEMB      61              0.0000000000
      6302        61  POPC      C313          -41.5714885430      -20.1149856980        5.2190907168  MEMB      61              0.0000000000
      6303        61  POPC      H13X          -42.2364814592      -19.5197219749        4.5574514885  MEMB      61              0.0000000000
      6304        61  POPC      H13Y          -42.2892654889      -20.7589295237        5.7708643142  MEMB      61              0.0000000000
      6305        61  POPC      C314          -40.7544783624      -21.0107979494        4.2999007841  MEMB      61              0.0000000000
      6306        61  POPC      H14X          -40.3314702374      -21.8531799595        4.8879294310  MEMB      61              0.0000000000
      6307        61  POPC      H14Y          -39.9162040250      -20.4021619849        3.8984296821  MEMB      61              0.0000000000
      6308        61  POPC      C315          -41.5976120722      -21.7034319967        3.2318231560  MEMB      61              0.0000000000
      6309        61  POPC      H15X          -42.1664537998      -20.8875164865        2.7368264905  MEMB      61              0.0000000000
      6310        61  POPC      H15Y          -42.3580579473      -22.3616508449        3.7038308003  MEMB      61              0.0000000000
      6311        61  POPC      C316          -40.8657080325      -22.5944902064        2.1414759841  MEMB      61              0.0000000000
      6312        61  POPC      H16X          -40.1227698516      -23.3044976768        2.5636773506  MEMB      61              0.0000000000
      6313        61  POPC      H16Y          -40.2090249382      -22.0147455165        1.4581142099  MEMB      61              0.0000000000
      6314        61  POPC      H16Z          -41.6000514655      -23.1584866066        1.5274982394  MEMB      61              0.0000000000
      6315        62  POPC      N             -45.2824895895        8.8270241543       20.1762608783  MEMB      62              0.0000000000
      6316        62  POPC      C12           -46.1948651431        7.6276998270       20.5026584766  MEMB      62              0.0000000000
      6317        62  POPC      H12A          -46.4390393811        7.7414172134       21.5485300878  MEMB      62              0.0000000000
      6318        62  POPC      H12B          -45.6555801914        6.6958192828       20.4179802340  MEMB      62              0.0000000000
      6319        62  POPC      C13           -44.7300940898        8.5773858755       18.7864237077  MEMB      62              0.0000000000
      6320        62  POPC      H13A          -44.1695010221        7.6603093335       18.6810386787  MEMB      62              0.0000000000
      6321        62  POPC      H13B          -45.5711005754        8.4159623978       18.1283578384  MEMB      62              0.0000000000
      6322        62  POPC      H13C          -44.0454971128        9.3649371917       18.5080536580  MEMB      62              0.0000000000
      6323        62  POPC      C14           -46.0700637502       10.1022205609       20.1887212798  MEMB      62              0.0000000000
      6324        62  POPC      H14A          -46.9970073393        9.9773026370       19.6487480558  MEMB      62              0.0000000000
      6325        62  POPC      H14B          -46.2745263564       10.4324090902       21.1964765329  MEMB      62              0.0000000000
      6326        62  POPC      H14C          -45.5214390925       10.9139918355       19.7343662062  MEMB      62              0.0000000000
      6327        62  POPC      C15           -44.1092906895        9.0197868935       21.1241322782  MEMB      62              0.0000000000
      6328        62  POPC      H15A          -43.5628478164        9.9237537275       20.8990902094  MEMB      62              0.0000000000
      6329        62  POPC      H15B          -43.4090273225        8.2247474503       20.9145052745  MEMB      62              0.0000000000
      6330        62  POPC      H15C          -44.4544013837        9.0439553849       22.1472230285  MEMB      62              0.0000000000
      6331        62  POPC      C11           -47.4707844030        7.4566554930       19.6857046155  MEMB      62              0.0000000000
      6332        62  POPC      H11A          -48.0505682406        8.4042186882       19.6685107487  MEMB      62              0.0000000000
      6333        62  POPC      H11B          -48.1177823938        6.7131854789       20.1985076479  MEMB      62              0.0000000000
      6334        62  POPC      P             -47.5411318080        5.6499191807       17.7553430997  MEMB      62              0.0000000000
      6335        62  POPC      O13           -49.0050813622        5.4528102583       17.7197526396  MEMB      62              0.0000000000
      6336        62  POPC      O14           -46.7072131665        4.7288267656       18.4974628065  MEMB      62              0.0000000000
      6337        62  POPC      O12           -47.2562181935        7.0809524679       18.2817032486  MEMB      62              0.0000000000
      6338        62  POPC      O11           -46.9808038639        5.8761433070       16.2818369473  MEMB      62              0.0000000000
      6339        62  POPC      C1            -47.3323404381        6.8500218463       15.3533759695  MEMB      62              0.0000000000
      6340        62  POPC      HA            -46.4822488807        7.0967863401       14.6819797165  MEMB      62              0.0000000000
      6341        62  POPC      HB            -47.6538352233        7.7772103132       15.8742248185  MEMB      62              0.0000000000
      6342        62  POPC      C2            -48.5356141578        6.3548547985       14.4337307349  MEMB      62              0.0000000000
      6343        62  POPC      HS            -49.3501252159        5.8957643295       15.0338379536  MEMB      62              0.0000000000
      6344        62  POPC      O21           -48.0664002278        5.4578025150       13.4501598566  MEMB      62              0.0000000000
      6345        62  POPC      C21           -47.8519715010        4.2180344331       13.8611631040  MEMB      62              0.0000000000
      6346        62  POPC      O22           -48.1515266558        3.8357968025       14.9811857589  MEMB      62              0.0000000000
      6347        62  POPC      C22           -47.2887784997        3.2412592941       12.8319783468  MEMB      62              0.0000000000
      6348        62  POPC      H2R           -47.6598128532        2.2136551437       13.0336815435  MEMB      62              0.0000000000
      6349        62  POPC      H2S           -46.2074152017        3.1829127206       13.0801114156  MEMB      62              0.0000000000
      6350        62  POPC      C3            -49.1161513122        7.6112884512       13.7577137241  MEMB      62              0.0000000000
      6351        62  POPC      HX            -49.4696751110        8.4182352881       14.4346028897  MEMB      62              0.0000000000
      6352        62  POPC      HY            -50.0402607751        7.3689229764       13.1906142623  MEMB      62              0.0000000000
      6353        62  POPC      O31           -48.1417773228        8.0869345373       12.8200545575  MEMB      62              0.0000000000
      6354        62  POPC      C31           -48.5306285790        8.7123452438       11.6981050137  MEMB      62              0.0000000000
      6355        62  POPC      O32           -49.6968550159        8.9745176888       11.4146565618  MEMB      62              0.0000000000
      6356        62  POPC      C32           -47.2382539673        8.8947485470       10.8890557922  MEMB      62              0.0000000000
      6357        62  POPC      H2X           -46.8014959933        7.8972975447       10.6684768953  MEMB      62              0.0000000000
      6358        62  POPC      H2Y           -46.4250303396        9.3559404860       11.4892975657  MEMB      62              0.0000000000
      6359        62  POPC      C23           -47.5962849522        3.7406807555       11.4023490195  MEMB      62              0.0000000000
      6360        62  POPC      H3R           -47.0053420629        3.1919984523       10.6381140901  MEMB      62              0.0000000000
      6361        62  POPC      H3S           -47.2950734713        4.8098046115       11.3785427630  MEMB      62              0.0000000000
      6362        62  POPC      C24           -49.0813924200        3.7157363233       10.9478609503  MEMB      62              0.0000000000
      6363        62  POPC      H4R           -49.7430993529        4.2626714531       11.6530753258  MEMB      62              0.0000000000
      6364        62  POPC      H4S           -49.5916518206        2.7300947053       10.8981982891  MEMB      62              0.0000000000
      6365        62  POPC      C25           -49.2595615057        4.3434124410        9.5487782066  MEMB      62              0.0000000000
      6366        62  POPC      H5R           -48.3311976989        4.9021770429        9.3033328119  MEMB      62              0.0000000000
      6367        62  POPC      H5S           -50.0930997734        5.0633681694        9.6943759387  MEMB      62              0.0000000000
      6368        62  POPC      C26           -49.5289753686        3.2314405359        8.4397180925  MEMB      62              0.0000000000
      6369        62  POPC      H6R           -50.3827631784        2.5601432509        8.6736557068  MEMB      62              0.0000000000
      6370        62  POPC      H6S           -48.7106186499        2.4829601816        8.5059778796  MEMB      62              0.0000000000
      6371        62  POPC      C27           -49.6448670117        3.6354662895        6.9207446508  MEMB      62              0.0000000000
      6372        62  POPC      H7R           -50.6167715027        4.1730822137        6.8944453622  MEMB      62              0.0000000000
      6373        62  POPC      H7S           -49.7308690328        2.6972581732        6.3319404388  MEMB      62              0.0000000000
      6374        62  POPC      C28           -48.4178039348        4.4228212982        6.4064983578  MEMB      62              0.0000000000
      6375        62  POPC      H8R           -47.5323419171        3.8048265851        6.6679561750  MEMB      62              0.0000000000
      6376        62  POPC      H8S           -48.2364252333        5.2423605986        7.1343571212  MEMB      62              0.0000000000
      6377        62  POPC      C29           -48.2764520651        4.9715951460        5.0492850405  MEMB      62              0.0000000000
      6378        62  POPC      H91           -49.2064474198        5.3076420816        4.5674334617  MEMB      62              0.0000000000
      6379        62  POPC      C210          -47.3262302528        5.0333947997        4.1352716881  MEMB      62              0.0000000000
      6380        62  POPC      H101          -47.5614954013        5.5045791371        3.1695405437  MEMB      62              0.0000000000
      6381        62  POPC      C211          -45.9212502720        4.4849151554        4.2974820730  MEMB      62              0.0000000000
      6382        62  POPC      H11R          -45.7277924600        4.2217212267        5.3593782100  MEMB      62              0.0000000000
      6383        62  POPC      H11S          -45.1185659722        5.2171588099        4.0654518117  MEMB      62              0.0000000000
      6384        62  POPC      C212          -45.7675678727        3.2066434884        3.5012283626  MEMB      62              0.0000000000
      6385        62  POPC      H12R          -46.5778986834        2.4865313798        3.7443819026  MEMB      62              0.0000000000
      6386        62  POPC      H12S          -44.8661278931        2.6783453753        3.8788898448  MEMB      62              0.0000000000
      6387        62  POPC      C213          -45.6784399886        3.5102795970        2.0266393107  MEMB      62              0.0000000000
      6388        62  POPC      H13R          -44.9394770815        4.3267186231        1.8793902418  MEMB      62              0.0000000000
      6389        62  POPC      H13S          -46.6221404384        3.8652877278        1.5600345230  MEMB      62              0.0000000000
      6390        62  POPC      C214          -45.2064357402        2.3219306282        1.1165124168  MEMB      62              0.0000000000
      6391        62  POPC      H14R          -45.8125509599        1.4014592592        1.2567896963  MEMB      62              0.0000000000
      6392        62  POPC      H14S          -44.1499337000        2.0107616666        1.2624521987  MEMB      62              0.0000000000
      6393        62  POPC      C215          -45.4075514042        2.6807786110       -0.3280249430  MEMB      62              0.0000000000
      6394        62  POPC      H15R          -46.4510974720        3.0614475036       -0.3486079085  MEMB      62              0.0000000000
      6395        62  POPC      H15S          -45.4448231469        1.7247301742       -0.8927408580  MEMB      62              0.0000000000
      6396        62  POPC      C216          -44.5383192945        3.7727927570       -0.8104682016  MEMB      62              0.0000000000
      6397        62  POPC      H16R          -43.4834449171        3.4792383217       -0.6223540342  MEMB      62              0.0000000000
      6398        62  POPC      H16S          -44.8236049001        4.6698221598       -0.2203247076  MEMB      62              0.0000000000
      6399        62  POPC      C217          -44.9130579012        4.1072079494       -2.2701813192  MEMB      62              0.0000000000
      6400        62  POPC      H17R          -45.9923871137        4.3696539054       -2.2923548141  MEMB      62              0.0000000000
      6401        62  POPC      H17S          -44.7832577020        3.2200356692       -2.9262283323  MEMB      62              0.0000000000
      6402        62  POPC      C218          -44.1970539854        5.3705760246       -2.8518182856  MEMB      62              0.0000000000
      6403        62  POPC      H18R          -44.5142353045        6.2693089049       -2.2808569976  MEMB      62              0.0000000000
      6404        62  POPC      H18S          -44.4942709190        5.6082721096       -3.8956012553  MEMB      62              0.0000000000
      6405        62  POPC      H18T          -43.0955262919        5.2824963029       -2.7369276328  MEMB      62              0.0000000000
      6406        62  POPC      C33           -47.5132585478        9.9061621654        9.7006212261  MEMB      62              0.0000000000
      6407        62  POPC      H3X           -46.4453067164       10.0554963108        9.4332277316  MEMB      62              0.0000000000
      6408        62  POPC      H3Y           -47.9297555616       10.9001663474        9.9704494097  MEMB      62              0.0000000000
      6409        62  POPC      C34           -48.0878758002        9.3185256944        8.3945133590  MEMB      62              0.0000000000
      6410        62  POPC      H4X           -49.1986434989        9.3395191583        8.4031898182  MEMB      62              0.0000000000
      6411        62  POPC      H4Y           -47.6555536631        8.2999758173        8.2946394936  MEMB      62              0.0000000000
      6412        62  POPC      C35           -47.5406509424        9.9768614983        7.1487401259  MEMB      62              0.0000000000
      6413        62  POPC      H5X           -47.4770792603       11.0767253653        7.2921928945  MEMB      62              0.0000000000
      6414        62  POPC      H5Y           -48.3192800358        9.6810452880        6.4135186132  MEMB      62              0.0000000000
      6415        62  POPC      C36           -46.2709505401        9.3092929351        6.7099805264  MEMB      62              0.0000000000
      6416        62  POPC      H6X           -46.2188782035        8.2308204124        6.4482430646  MEMB      62              0.0000000000
      6417        62  POPC      H6Y           -45.5268298368        9.4032022340        7.5296064521  MEMB      62              0.0000000000
      6418        62  POPC      C37           -45.5599196094       10.0109439954        5.5708040483  MEMB      62              0.0000000000
      6419        62  POPC      H7X           -44.6803147083       10.6293478994        5.8504334268  MEMB      62              0.0000000000
      6420        62  POPC      H7Y           -46.2848526301       10.6553508622        5.0290173097  MEMB      62              0.0000000000
      6421        62  POPC      C38           -45.0467597919        8.9557666651        4.5132073405  MEMB      62              0.0000000000
      6422        62  POPC      H8X           -45.8325977216        8.1742277367        4.4358972022  MEMB      62              0.0000000000
      6423        62  POPC      H8Y           -44.0903098845        8.5842153416        4.9392052313  MEMB      62              0.0000000000
      6424        62  POPC      C39           -44.7479440650        9.5187802508        3.0973083437  MEMB      62              0.0000000000
      6425        62  POPC      H9X           -43.8132938191       10.1170388905        3.1505645392  MEMB      62              0.0000000000
      6426        62  POPC      H9Y           -45.4651985532       10.3483301160        2.9192234372  MEMB      62              0.0000000000
      6427        62  POPC      C310          -44.6962765978        8.4963333791        1.9946128404  MEMB      62              0.0000000000
      6428        62  POPC      H10X          -44.0203881727        7.6190221647        2.0830478971  MEMB      62              0.0000000000
      6429        62  POPC      H10Y          -44.4349749186        9.1372789751        1.1255725702  MEMB      62              0.0000000000
      6430        62  POPC      C311          -46.1438671271        7.9951297801        1.6229383015  MEMB      62              0.0000000000
      6431        62  POPC      H11X          -46.6624867683        7.8811624614        2.5988298544  MEMB      62              0.0000000000
      6432        62  POPC      H11Y          -46.0805546161        7.0157529809        1.1022325848  MEMB      62              0.0000000000
      6433        62  POPC      C312          -46.8181741890        9.0220806431        0.6775405094  MEMB      62              0.0000000000
      6434        62  POPC      H12X          -46.0291785206        9.2486649862       -0.0711034002  MEMB      62              0.0000000000
      6435        62  POPC      H12Y          -47.0300898689        9.9157911311        1.3025948749  MEMB      62              0.0000000000
      6436        62  POPC      C313          -47.9652788456        8.4604770492       -0.1909093777  MEMB      62              0.0000000000
      6437        62  POPC      H13X          -47.5815792635        7.7219412788       -0.9268841819  MEMB      62              0.0000000000
      6438        62  POPC      H13Y          -48.3930294176        9.2238152838       -0.8754997361  MEMB      62              0.0000000000
      6439        62  POPC      C314          -49.0434132775        7.7975556171        0.6252998820  MEMB      62              0.0000000000
      6440        62  POPC      H14X          -49.5404990567        8.4900008938        1.3378620061  MEMB      62              0.0000000000
      6441        62  POPC      H14Y          -48.6845981803        6.9292295097        1.2182428281  MEMB      62              0.0000000000
      6442        62  POPC      C315          -50.1826177239        7.3720934465       -0.3234537538  MEMB      62              0.0000000000
      6443        62  POPC      H15X          -50.8032849111        6.6580545483        0.2589905842  MEMB      62              0.0000000000
      6444        62  POPC      H15Y          -49.8622725513        6.6475550547       -1.1023910509  MEMB      62              0.0000000000
      6445        62  POPC      C316          -51.1110437423        8.4293879967       -1.0184003637  MEMB      62              0.0000000000
      6446        62  POPC      H16X          -50.4924003887        9.0619334705       -1.6903299399  MEMB      62              0.0000000000
      6447        62  POPC      H16Y          -51.6025058865        9.0128753579       -0.2107322848  MEMB      62              0.0000000000
      6448        62  POPC      H16Z          -51.8861296709        8.0493748617       -1.7177967175  MEMB      62              0.0000000000
      6449        63  POPC      N              40.3029407405       20.0668201418       18.0136153056  MEMB      63              0.0000000000
      6450        63  POPC      C12            40.1600284552       18.6377269972       17.5211483847  MEMB      63              0.0000000000
      6451        63  POPC      H12A           41.1388165408       18.2002986209       17.6516484294  MEMB      63              0.0000000000
      6452        63  POPC      H12B           39.8778689605       18.7735213655       16.4875402734  MEMB      63              0.0000000000
      6453        63  POPC      C13            40.7523415832       20.0810003710       19.3525887058  MEMB      63              0.0000000000
      6454        63  POPC      H13A           40.8028928675       21.0943565117       19.7226617087  MEMB      63              0.0000000000
      6455        63  POPC      H13B           40.0268282120       19.5995302829       19.9915071867  MEMB      63              0.0000000000
      6456        63  POPC      H13C           41.6492923090       19.4837674296       19.4246454211  MEMB      63              0.0000000000
      6457        63  POPC      C14            41.2747087627       20.8532884170       17.0959381999  MEMB      63              0.0000000000
      6458        63  POPC      H14A           42.3154802834       20.6777243063       17.3247879672  MEMB      63              0.0000000000
      6459        63  POPC      H14B           41.0748589214       20.5642772452       16.0746974398  MEMB      63              0.0000000000
      6460        63  POPC      H14C           41.0220971807       21.8939118595       17.2362588290  MEMB      63              0.0000000000
      6461        63  POPC      C15            39.0065855472       20.8901150748       18.1569556861  MEMB      63              0.0000000000
      6462        63  POPC      H15A           38.4117332508       20.7804046332       17.2622408886  MEMB      63              0.0000000000
      6463        63  POPC      H15B           39.2220560754       21.9404546446       18.2864128248  MEMB      63              0.0000000000
      6464        63  POPC      H15C           38.4380362650       20.4416912981       18.9582470474  MEMB      63              0.0000000000
      6465        63  POPC      C11            39.1051681659       17.6687962637       18.0752276687  MEMB      63              0.0000000000
      6466        63  POPC      H11A           39.0991000035       16.6475665888       17.6377644523  MEMB      63              0.0000000000
      6467        63  POPC      H11B           38.1089343118       18.1412578353       17.9387753617  MEMB      63              0.0000000000
      6468        63  POPC      P              40.3322724263       16.5247133895       20.2431669894  MEMB      63              0.0000000000
      6469        63  POPC      O13            39.6229778628       15.2763660345       20.5628481838  MEMB      63              0.0000000000
      6470        63  POPC      O14            40.9696419950       17.1784657375       21.4220787319  MEMB      63              0.0000000000
      6471        63  POPC      O12            39.3311304319       17.5387845103       19.4852965599  MEMB      63              0.0000000000
      6472        63  POPC      O11            41.4195251816       16.2164086811       19.0711355793  MEMB      63              0.0000000000
      6473        63  POPC      C1             42.7127959242       15.9793658444       19.6388919499  MEMB      63              0.0000000000
      6474        63  POPC      HA             42.7041385903       15.0734208153       20.2819390310  MEMB      63              0.0000000000
      6475        63  POPC      HB             43.1478405954       16.8033334745       20.2439824718  MEMB      63              0.0000000000
      6476        63  POPC      C2             43.6824353404       15.9112220815       18.4656076049  MEMB      63              0.0000000000
      6477        63  POPC      HS             44.7193530005       15.7076150970       18.8086342698  MEMB      63              0.0000000000
      6478        63  POPC      O21            43.5715593933       17.1766380522       17.8551346038  MEMB      63              0.0000000000
      6479        63  POPC      C21            44.5092032264       17.5480002469       17.1004183355  MEMB      63              0.0000000000
      6480        63  POPC      O22            45.6999702149       17.2429782221       17.2368727032  MEMB      63              0.0000000000
      6481        63  POPC      C22            43.9885098348       18.6184626859       16.0702050908  MEMB      63              0.0000000000
      6482        63  POPC      H2R            43.7339980572       19.5661424576       16.5912115557  MEMB      63              0.0000000000
      6483        63  POPC      H2S            43.0890101119       18.2478320023       15.5336844481  MEMB      63              0.0000000000
      6484        63  POPC      C3             43.3239280509       14.8119203379       17.4650607668  MEMB      63              0.0000000000
      6485        63  POPC      HX             43.4071787287       13.8491963469       18.0132879619  MEMB      63              0.0000000000
      6486        63  POPC      HY             44.1944376832       14.8713952713       16.7773130815  MEMB      63              0.0000000000
      6487        63  POPC      O31            42.0714336828       14.9167312064       16.8707804370  MEMB      63              0.0000000000
      6488        63  POPC      C31            42.0905385209       15.0834495442       15.5103099040  MEMB      63              0.0000000000
      6489        63  POPC      O32            43.0673492958       15.3507906703       14.7973098335  MEMB      63              0.0000000000
      6490        63  POPC      C32            40.6434692015       15.1290535695       15.0360913190  MEMB      63              0.0000000000
      6491        63  POPC      H2X            40.0915335582       15.9393020785       15.5587628922  MEMB      63              0.0000000000
      6492        63  POPC      H2Y            40.2500370844       14.1109939086       15.2436643852  MEMB      63              0.0000000000
      6493        63  POPC      C23            45.1256923123       18.9618021530       15.0145630009  MEMB      63              0.0000000000
      6494        63  POPC      H3R            46.0775230010       19.2512780052       15.5090762035  MEMB      63              0.0000000000
      6495        63  POPC      H3S            44.8242548468       19.8969916560       14.4960291929  MEMB      63              0.0000000000
      6496        63  POPC      C24            45.3132111944       17.7985351572       14.0945537812  MEMB      63              0.0000000000
      6497        63  POPC      H4R            45.2715528071       16.9082271290       14.7578315192  MEMB      63              0.0000000000
      6498        63  POPC      H4S            46.3093510151       17.8209221216       13.6031015415  MEMB      63              0.0000000000
      6499        63  POPC      C25            44.3076196257       17.6336721092       12.9697472086  MEMB      63              0.0000000000
      6500        63  POPC      H5R            43.3578335804       17.3484781252       13.4706384100  MEMB      63              0.0000000000
      6501        63  POPC      H5S            44.6672749133       16.7552932431       12.3923221887  MEMB      63              0.0000000000
      6502        63  POPC      C26            44.1755182919       18.8408672598       12.0568500039  MEMB      63              0.0000000000
      6503        63  POPC      H6R            43.7869519127       19.7350955296       12.5894781295  MEMB      63              0.0000000000
      6504        63  POPC      H6S            43.4106015401       18.6741732926       11.2685372169  MEMB      63              0.0000000000
      6505        63  POPC      C27            45.4038906615       19.2369005758       11.1718234158  MEMB      63              0.0000000000
      6506        63  POPC      H7R            45.9521929503       18.3345767846       10.8261392271  MEMB      63              0.0000000000
      6507        63  POPC      H7S            46.0905970083       19.8299849428       11.8129211087  MEMB      63              0.0000000000
      6508        63  POPC      C28            44.9820847677       20.2127639405        9.9898367207  MEMB      63              0.0000000000
      6509        63  POPC      H8R            44.3111985510       19.6238396086        9.3284740075  MEMB      63              0.0000000000
      6510        63  POPC      H8S            45.8664248930       20.5531379280        9.4098294304  MEMB      63              0.0000000000
      6511        63  POPC      C29            44.3181613424       21.4852399438       10.4288385114  MEMB      63              0.0000000000
      6512        63  POPC      H91            45.0275575548       22.2779928509       10.7086581182  MEMB      63              0.0000000000
      6513        63  POPC      C210           43.0494430678       21.7368226110       10.5014932769  MEMB      63              0.0000000000
      6514        63  POPC      H101           42.8176883421       22.7542750029       10.8494589100  MEMB      63              0.0000000000
      6515        63  POPC      C211           41.8272842851       20.7935311374       10.1931492149  MEMB      63              0.0000000000
      6516        63  POPC      H11R           41.4173290683       20.6024208281       11.2079075023  MEMB      63              0.0000000000
      6517        63  POPC      H11S           42.1591798647       19.8683487530        9.6752645092  MEMB      63              0.0000000000
      6518        63  POPC      C212           40.8213031037       21.5208855421        9.1908709942  MEMB      63              0.0000000000
      6519        63  POPC      H12R           40.5738751026       22.5646454670        9.4801206692  MEMB      63              0.0000000000
      6520        63  POPC      H12S           39.8362174551       21.0146299974        9.2782351509  MEMB      63              0.0000000000
      6521        63  POPC      C213           41.2651410264       21.3008345467        7.6540892319  MEMB      63              0.0000000000
      6522        63  POPC      H13R           41.3811780522       20.2052684065        7.5105923098  MEMB      63              0.0000000000
      6523        63  POPC      H13S           42.2813131852       21.7377346247        7.5500057881  MEMB      63              0.0000000000
      6524        63  POPC      C214           40.3540913353       21.8999351463        6.5960176302  MEMB      63              0.0000000000
      6525        63  POPC      H14R           40.1641731808       22.9688097207        6.8321510171  MEMB      63              0.0000000000
      6526        63  POPC      H14S           39.3462032752       21.4361996537        6.6546021755  MEMB      63              0.0000000000
      6527        63  POPC      C215           40.8588945923       21.8771796589        5.1139744488  MEMB      63              0.0000000000
      6528        63  POPC      H15R           41.7423028942       22.5447003510        5.2052257163  MEMB      63              0.0000000000
      6529        63  POPC      H15S           40.0628178119       22.4292177138        4.5700655882  MEMB      63              0.0000000000
      6530        63  POPC      C216           41.0763326000       20.5384652782        4.4490011429  MEMB      63              0.0000000000
      6531        63  POPC      H16R           40.0777052786       20.0728540070        4.5913769468  MEMB      63              0.0000000000
      6532        63  POPC      H16S           41.9144106706       20.0471540304        4.9880365841  MEMB      63              0.0000000000
      6533        63  POPC      C217           41.4751142558       20.7261237187        3.0087009041  MEMB      63              0.0000000000
      6534        63  POPC      H17R           42.2519601848       21.5001391410        2.8305663703  MEMB      63              0.0000000000
      6535        63  POPC      H17S           40.5809041403       21.1308607352        2.4882225374  MEMB      63              0.0000000000
      6536        63  POPC      C218           41.9036565551       19.4980659823        2.3247568687  MEMB      63              0.0000000000
      6537        63  POPC      H18R           42.9737274761       19.4266018237        2.6148632669  MEMB      63              0.0000000000
      6538        63  POPC      H18S           41.8106073603       19.5057870413        1.2176864966  MEMB      63              0.0000000000
      6539        63  POPC      H18T           41.2741790299       18.6589167945        2.6906899092  MEMB      63              0.0000000000
      6540        63  POPC      C33            40.4395933834       15.2590796254       13.5617878282  MEMB      63              0.0000000000
      6541        63  POPC      H3X            41.1256623526       14.5104957029       13.1109521438  MEMB      63              0.0000000000
      6542        63  POPC      H3Y            40.7697176505       16.2618050315       13.2155502240  MEMB      63              0.0000000000
      6543        63  POPC      C34            38.9938241828       14.9676647428       13.1362311401  MEMB      63              0.0000000000
      6544        63  POPC      H4X            38.6055784127       15.9245782841       12.7264718528  MEMB      63              0.0000000000
      6545        63  POPC      H4Y            38.4585395151       14.7551343300       14.0862953524  MEMB      63              0.0000000000
      6546        63  POPC      C35            38.9413656125       13.8281482363       12.1006058887  MEMB      63              0.0000000000
      6547        63  POPC      H5X            37.8870723698       13.6845983923       11.7809500089  MEMB      63              0.0000000000
      6548        63  POPC      H5Y            39.1613120787       12.9039805311       12.6766772540  MEMB      63              0.0000000000
      6549        63  POPC      C36            39.8095529421       13.9832736049       10.8327822703  MEMB      63              0.0000000000
      6550        63  POPC      H6X            39.5553686149       13.1533120311       10.1393298846  MEMB      63              0.0000000000
      6551        63  POPC      H6Y            40.8921151846       13.7785726566       10.9758823264  MEMB      63              0.0000000000
      6552        63  POPC      C37            39.5684987733       15.3444807036       10.1338559851  MEMB      63              0.0000000000
      6553        63  POPC      H7X            40.1051677360       16.0359635961       10.8180770242  MEMB      63              0.0000000000
      6554        63  POPC      H7Y            38.4721699402       15.4596247132        9.9955598420  MEMB      63              0.0000000000
      6555        63  POPC      C38            40.2914962353       15.4556322634        8.7758200318  MEMB      63              0.0000000000
      6556        63  POPC      H8X            40.1637809808       14.4560028281        8.3081120722  MEMB      63              0.0000000000
      6557        63  POPC      H8Y            41.3973756257       15.5165090430        8.8632602339  MEMB      63              0.0000000000
      6558        63  POPC      C39            39.8960825134       16.6190337588        7.8488344890  MEMB      63              0.0000000000
      6559        63  POPC      H9X            40.2109010523       17.5770245382        8.3151650251  MEMB      63              0.0000000000
      6560        63  POPC      H9Y            38.7880073172       16.5441773861        7.8786189873  MEMB      63              0.0000000000
      6561        63  POPC      C310           40.4830853511       16.5289577847        6.4492552688  MEMB      63              0.0000000000
      6562        63  POPC      H10X           39.8667536767       17.1547472232        5.7689289159  MEMB      63              0.0000000000
      6563        63  POPC      H10Y           40.4341520039       15.4748079935        6.1018433932  MEMB      63              0.0000000000
      6564        63  POPC      C311           42.0087889867       16.7906550513        6.4616204913  MEMB      63              0.0000000000
      6565        63  POPC      H11X           42.4949599916       15.9741194640        7.0371451967  MEMB      63              0.0000000000
      6566        63  POPC      H11Y           42.3432714584       17.6493040848        7.0822364156  MEMB      63              0.0000000000
      6567        63  POPC      C312           42.5214085308       16.9337157580        5.0592014201  MEMB      63              0.0000000000
      6568        63  POPC      H12X           43.5853467093       17.2526668267        5.0341666378  MEMB      63              0.0000000000
      6569        63  POPC      H12Y           41.8427395660       17.6191297552        4.5078968986  MEMB      63              0.0000000000
      6570        63  POPC      C313           42.4619651672       15.6441372943        4.1891502110  MEMB      63              0.0000000000
      6571        63  POPC      H13X           41.4155855221       15.5252999327        3.8351886697  MEMB      63              0.0000000000
      6572        63  POPC      H13Y           42.9034464446       14.9017993630        4.8879698144  MEMB      63              0.0000000000
      6573        63  POPC      C314           43.3260878785       15.7113823311        2.8898889905  MEMB      63              0.0000000000
      6574        63  POPC      H14X           44.3657896516       15.5440746076        3.2439364340  MEMB      63              0.0000000000
      6575        63  POPC      H14Y           43.1558773882       16.6623445329        2.3412366700  MEMB      63              0.0000000000
      6576        63  POPC      C315           43.0324691953       14.6814981256        1.8507252803  MEMB      63              0.0000000000
      6577        63  POPC      H15X           43.7468307507       14.6555532828        1.0002337173  MEMB      63              0.0000000000
      6578        63  POPC      H15Y           41.9898819011       14.7403855146        1.4714300803  MEMB      63              0.0000000000
      6579        63  POPC      C316           43.0864294036       13.1709287209        2.4493917516  MEMB      63              0.0000000000
      6580        63  POPC      H16X           42.3575318202       13.0506069046        3.2791824488  MEMB      63              0.0000000000
      6581        63  POPC      H16Y           44.1402469988       12.9702213793        2.7383659515  MEMB      63              0.0000000000
      6582        63  POPC      H16Z           42.8257635060       12.4117553144        1.6812579838  MEMB      63              0.0000000000
      6583        64  POPC      N              -9.2508124897      -48.0641948831       20.2420956649  MEMB      64              0.0000000000
      6584        64  POPC      C12            -9.8660675873      -46.7230074264       19.7378326991  MEMB      64              0.0000000000
      6585        64  POPC      H12A          -10.8090241384      -46.5407303049       20.2318043885  MEMB      64              0.0000000000
      6586        64  POPC      H12B          -10.2099601852      -46.8455310117       18.7214047578  MEMB      64              0.0000000000
      6587        64  POPC      C13            -8.6734838622      -48.0027463515       21.6134418497  MEMB      64              0.0000000000
      6588        64  POPC      H13A           -7.8242621679      -47.3356519054       21.5990333060  MEMB      64              0.0000000000
      6589        64  POPC      H13B           -9.4560229232      -47.7148627006       22.2998494701  MEMB      64              0.0000000000
      6590        64  POPC      H13C           -8.2374902070      -48.9578272207       21.8666810731  MEMB      64              0.0000000000
      6591        64  POPC      C14           -10.3719179529      -49.0838888625       20.1727121550  MEMB      64              0.0000000000
      6592        64  POPC      H14A           -9.9710318311      -50.0194716985       20.5337863085  MEMB      64              0.0000000000
      6593        64  POPC      H14B          -11.0923015072      -48.7140332475       20.8873131554  MEMB      64              0.0000000000
      6594        64  POPC      H14C          -10.8000702766      -49.1062545861       19.1814577214  MEMB      64              0.0000000000
      6595        64  POPC      C15            -8.3086887046      -48.6193962144       19.2399085577  MEMB      64              0.0000000000
      6596        64  POPC      H15A           -8.8414193381      -48.8264887321       18.3235512069  MEMB      64              0.0000000000
      6597        64  POPC      H15B           -7.9599450437      -49.5757037096       19.6008155863  MEMB      64              0.0000000000
      6598        64  POPC      H15C           -7.5560042801      -47.8889538683       18.9823821241  MEMB      64              0.0000000000
      6599        64  POPC      C11            -8.9410126996      -45.3968284124       19.6714624967  MEMB      64              0.0000000000
      6600        64  POPC      H11A           -8.9880402367      -44.9313648914       20.6791595209  MEMB      64              0.0000000000
      6601        64  POPC      H11B           -9.5419095298      -44.6584327898       19.0987358426  MEMB      64              0.0000000000
      6602        64  POPC      P              -7.3441067585      -45.7768304602       17.6344344303  MEMB      64              0.0000000000
      6603        64  POPC      O13            -6.4184220211      -46.9075919635       17.3262083259  MEMB      64              0.0000000000
      6604        64  POPC      O14            -6.7685487686      -44.4425614931       17.2458249171  MEMB      64              0.0000000000
      6605        64  POPC      O12            -7.6440514087      -45.7215221505       19.1812971493  MEMB      64              0.0000000000
      6606        64  POPC      O11            -8.7266048486      -45.9907633857       16.9347817547  MEMB      64              0.0000000000
      6607        64  POPC      C1             -8.9076016449      -45.7132394266       15.5664714986  MEMB      64              0.0000000000
      6608        64  POPC      HA             -8.0422951060      -46.1636727615       15.0347994073  MEMB      64              0.0000000000
      6609        64  POPC      HB             -9.0059751021      -44.6250074947       15.3654864124  MEMB      64              0.0000000000
      6610        64  POPC      C2            -10.1986527506      -46.4152852546       15.0974551848  MEMB      64              0.0000000000
      6611        64  POPC      HS            -11.0460274143      -46.2723872441       15.8016265624  MEMB      64              0.0000000000
      6612        64  POPC      O21            -9.8165198584      -47.7780869486       15.0809055590  MEMB      64              0.0000000000
      6613        64  POPC      C21           -10.8502263637      -48.6532919312       14.8225334014  MEMB      64              0.0000000000
      6614        64  POPC      O22           -12.0480645192      -48.4099440475       14.7495285403  MEMB      64              0.0000000000
      6615        64  POPC      C22           -10.2550396579      -50.1063926815       14.9125626391  MEMB      64              0.0000000000
      6616        64  POPC      H2R           -11.0368239383      -50.8531913606       15.1683477668  MEMB      64              0.0000000000
      6617        64  POPC      H2S            -9.4182005305      -50.2047179114       15.6366851414  MEMB      64              0.0000000000
      6618        64  POPC      C3            -10.7183858247      -45.9002204809       13.7465346900  MEMB      64              0.0000000000
      6619        64  POPC      HX            -11.0222731560      -44.8520580516       13.9546907067  MEMB      64              0.0000000000
      6620        64  POPC      HY            -11.5935955209      -46.4419887093       13.3284241346  MEMB      64              0.0000000000
      6621        64  POPC      O31            -9.6423630664      -45.8315952032       12.7621982640  MEMB      64              0.0000000000
      6622        64  POPC      C31            -9.7832681242      -45.1339666430       11.6359669833  MEMB      64              0.0000000000
      6623        64  POPC      O32           -10.8066150146      -44.4690059089       11.4049580504  MEMB      64              0.0000000000
      6624        64  POPC      C32            -8.6300845261      -45.3186784971       10.7530108548  MEMB      64              0.0000000000
      6625        64  POPC      H2X            -8.6985200586      -46.3276143527       10.2929175495  MEMB      64              0.0000000000
      6626        64  POPC      H2Y            -7.7661189538      -45.3345154016       11.4513183073  MEMB      64              0.0000000000
      6627        64  POPC      C23            -9.7289693776      -50.5505526329       13.5265934682  MEMB      64              0.0000000000
      6628        64  POPC      H3R           -10.5482118028      -50.6493823871       12.7826876964  MEMB      64              0.0000000000
      6629        64  POPC      H3S            -9.2464020918      -51.5471733265       13.6171319664  MEMB      64              0.0000000000
      6630        64  POPC      C24            -8.5994950610      -49.6366150626       13.0252569200  MEMB      64              0.0000000000
      6631        64  POPC      H4R            -7.8905372742      -49.7667733050       13.8706909109  MEMB      64              0.0000000000
      6632        64  POPC      H4S            -8.8745048519      -48.5966774996       12.7473709592  MEMB      64              0.0000000000
      6633        64  POPC      C25            -7.8836844100      -50.3605601721       11.8879116194  MEMB      64              0.0000000000
      6634        64  POPC      H5R            -8.4766631146      -50.3667172862       10.9484122302  MEMB      64              0.0000000000
      6635        64  POPC      H5S            -7.7991914374      -51.4484628216       12.0968384107  MEMB      64              0.0000000000
      6636        64  POPC      C26            -6.5020756690      -49.7698962446       11.3757251932  MEMB      64              0.0000000000
      6637        64  POPC      H6R            -6.0652626606      -50.4693789700       10.6312523403  MEMB      64              0.0000000000
      6638        64  POPC      H6S            -5.8411326412      -49.6595765618       12.2618992756  MEMB      64              0.0000000000
      6639        64  POPC      C27            -6.7538471299      -48.4660023113       10.5925181438  MEMB      64              0.0000000000
      6640        64  POPC      H7R            -7.2808628987      -47.7708785660       11.2805430320  MEMB      64              0.0000000000
      6641        64  POPC      H7S            -7.3081045676      -48.6270303703        9.6432076459  MEMB      64              0.0000000000
      6642        64  POPC      C28            -5.4556408600      -47.6028435223       10.3070652982  MEMB      64              0.0000000000
      6643        64  POPC      H8R            -5.0965856464      -47.1381532264       11.2501785379  MEMB      64              0.0000000000
      6644        64  POPC      H8S            -5.6927118960      -46.7133451282        9.6850434829  MEMB      64              0.0000000000
      6645        64  POPC      C29            -4.3220598424      -48.4576387420        9.8227317741  MEMB      64              0.0000000000
      6646        64  POPC      H91            -3.8164656482      -49.0409609926       10.6063830242  MEMB      64              0.0000000000
      6647        64  POPC      C210           -3.7706934665      -48.4038989763        8.5826516263  MEMB      64              0.0000000000
      6648        64  POPC      H101           -3.0506566508      -49.2055982969        8.3616868411  MEMB      64              0.0000000000
      6649        64  POPC      C211           -4.1302240640      -47.5538319836        7.4197900883  MEMB      64              0.0000000000
      6650        64  POPC      H11R           -3.3828981852      -47.7977144235        6.6347129231  MEMB      64              0.0000000000
      6651        64  POPC      H11S           -4.1024009488      -46.4914449923        7.7436433678  MEMB      64              0.0000000000
      6652        64  POPC      C212           -5.5004097102      -48.0243094278        6.9061334891  MEMB      64              0.0000000000
      6653        64  POPC      H12R           -6.2855529635      -47.7521016347        7.6435431201  MEMB      64              0.0000000000
      6654        64  POPC      H12S           -5.4934842896      -49.1283142064        6.7818484654  MEMB      64              0.0000000000
      6655        64  POPC      C213           -5.8359036866      -47.4720571553        5.4860510573  MEMB      64              0.0000000000
      6656        64  POPC      H13R           -6.6164619369      -48.1073768740        5.0155003864  MEMB      64              0.0000000000
      6657        64  POPC      H13S           -4.8511510192      -47.6480587012        5.0027220827  MEMB      64              0.0000000000
      6658        64  POPC      C214           -6.2561666981      -45.9741222517        5.4688416390  MEMB      64              0.0000000000
      6659        64  POPC      H14R           -5.6568579022      -45.3500188254        6.1657236201  MEMB      64              0.0000000000
      6660        64  POPC      H14S           -7.3110684769      -45.8891381392        5.8068963476  MEMB      64              0.0000000000
      6661        64  POPC      C215           -6.0061545354      -45.2576345047        4.0885756860  MEMB      64              0.0000000000
      6662        64  POPC      H15R           -4.9081693745      -45.3341802357        3.9372797039  MEMB      64              0.0000000000
      6663        64  POPC      H15S           -6.2740276155      -44.1851802091        4.1999617644  MEMB      64              0.0000000000
      6664        64  POPC      C216           -6.6497829421      -45.9625770555        2.8936000351  MEMB      64              0.0000000000
      6665        64  POPC      H16R           -7.7230720851      -45.7863876909        3.1201589312  MEMB      64              0.0000000000
      6666        64  POPC      H16S           -6.2401493821      -46.9945005759        2.8529195015  MEMB      64              0.0000000000
      6667        64  POPC      C217           -6.2438471781      -45.2991052917        1.6132168713  MEMB      64              0.0000000000
      6668        64  POPC      H17R           -5.2677019349      -45.7049985433        1.2715857199  MEMB      64              0.0000000000
      6669        64  POPC      H17S           -6.3336442292      -44.1959074818        1.7091977657  MEMB      64              0.0000000000
      6670        64  POPC      C218           -7.2702879282      -45.5603148773        0.5351366649  MEMB      64              0.0000000000
      6671        64  POPC      H18R           -8.3059473446      -45.3865190106        0.8978007594  MEMB      64              0.0000000000
      6672        64  POPC      H18S           -7.2451885672      -46.5596780536        0.0504044954  MEMB      64              0.0000000000
      6673        64  POPC      H18T           -7.1290848117      -44.8516997251       -0.3088109801  MEMB      64              0.0000000000
      6674        64  POPC      C33            -8.5570059733      -44.3152772749        9.6064656925  MEMB      64              0.0000000000
      6675        64  POPC      H3X            -7.5696833818      -44.3973142908        9.1036890330  MEMB      64              0.0000000000
      6676        64  POPC      H3Y            -8.6803323414      -43.2795649840        9.9891039445  MEMB      64              0.0000000000
      6677        64  POPC      C34            -9.6420925376      -44.5156367831        8.5076982702  MEMB      64              0.0000000000
      6678        64  POPC      H4X           -10.6240003888      -44.2376419034        8.9468989581  MEMB      64              0.0000000000
      6679        64  POPC      H4Y            -9.5339686551      -45.5811061726        8.2120542306  MEMB      64              0.0000000000
      6680        64  POPC      C35            -9.3865886840      -43.6557095674        7.2628784018  MEMB      64              0.0000000000
      6681        64  POPC      H5X            -8.3282000532      -43.8433909085        6.9819684823  MEMB      64              0.0000000000
      6682        64  POPC      H5Y            -9.3332864675      -42.6541312971        7.7407076861  MEMB      64              0.0000000000
      6683        64  POPC      C36           -10.3925420818      -43.8649388172        6.2430293197  MEMB      64              0.0000000000
      6684        64  POPC      H6X           -10.1180398373      -43.0889548039        5.4968270801  MEMB      64              0.0000000000
      6685        64  POPC      H6Y           -11.4264324660      -43.6509634402        6.5888710544  MEMB      64              0.0000000000
      6686        64  POPC      C37           -10.3854000277      -45.2428143801        5.5431325670  MEMB      64              0.0000000000
      6687        64  POPC      H7X           -10.7654421864      -45.9535446617        6.3078225587  MEMB      64              0.0000000000
      6688        64  POPC      H7Y            -9.3710028270      -45.5593513048        5.2189043491  MEMB      64              0.0000000000
      6689        64  POPC      C38           -11.2940084230      -45.2526151109        4.2738036822  MEMB      64              0.0000000000
      6690        64  POPC      H8X           -10.9338797221      -44.5327342153        3.5080365223  MEMB      64              0.0000000000
      6691        64  POPC      H8Y           -12.3350739819      -45.0729565975        4.6176444511  MEMB      64              0.0000000000
      6692        64  POPC      C39           -11.4546067729      -46.6178892296        3.5610075092  MEMB      64              0.0000000000
      6693        64  POPC      H9X           -11.5938944805      -47.4228838374        4.3139375403  MEMB      64              0.0000000000
      6694        64  POPC      H9Y           -10.4855059607      -46.7944943431        3.0472225200  MEMB      64              0.0000000000
      6695        64  POPC      C310          -12.4899307168      -46.7596191222        2.4920036746  MEMB      64              0.0000000000
      6696        64  POPC      H10X          -12.3635545810      -45.9525348434        1.7390320041  MEMB      64              0.0000000000
      6697        64  POPC      H10Y          -13.4847103510      -46.6655215583        2.9776776031  MEMB      64              0.0000000000
      6698        64  POPC      C311          -12.3454942643      -48.0754613434        1.7241723950  MEMB      64              0.0000000000
      6699        64  POPC      H11X          -12.6833670512      -48.9406377263        2.3337909136  MEMB      64              0.0000000000
      6700        64  POPC      H11Y          -11.3108638112      -48.1814304038        1.3334919546  MEMB      64              0.0000000000
      6701        64  POPC      C312          -13.3752327966      -48.1810622571        0.6190474721  MEMB      64              0.0000000000
      6702        64  POPC      H12X          -14.4068324501      -48.0258807449        1.0012027345  MEMB      64              0.0000000000
      6703        64  POPC      H12Y          -13.2181093961      -49.2038018820        0.2145289684  MEMB      64              0.0000000000
      6704        64  POPC      C313          -13.0623003194      -47.4156901923       -0.7060250409  MEMB      64              0.0000000000
      6705        64  POPC      H13X          -13.2970494826      -46.3521176559       -0.4868743163  MEMB      64              0.0000000000
      6706        64  POPC      H13Y          -13.7490747290      -47.6895225699       -1.5352889367  MEMB      64              0.0000000000
      6707        64  POPC      C314          -11.5368957519      -47.3928371277       -1.1853538141  MEMB      64              0.0000000000
      6708        64  POPC      H14X          -10.8975574227      -46.9352869267       -0.4003601880  MEMB      64              0.0000000000
      6709        64  POPC      H14Y          -11.3574102863      -46.6481651171       -1.9900704219  MEMB      64              0.0000000000
      6710        64  POPC      C315          -11.0918162931      -48.7538951920       -1.4563528706  MEMB      64              0.0000000000
      6711        64  POPC      H15X          -11.4746590240      -49.2049733403       -2.3967153778  MEMB      64              0.0000000000
      6712        64  POPC      H15Y          -11.3329864514      -49.4449819112       -0.6205546452  MEMB      64              0.0000000000
      6713        64  POPC      C316           -9.5392455998      -48.7849267630       -1.5544432968  MEMB      64              0.0000000000
      6714        64  POPC      H16X           -9.1093646707      -48.4802318865       -0.5763415636  MEMB      64              0.0000000000
      6715        64  POPC      H16Y           -9.0787388334      -48.1030897826       -2.3010046084  MEMB      64              0.0000000000
      6716        64  POPC      H16Z           -9.2126522463      -49.8245293590       -1.7709707378  MEMB      64              0.0000000000
      6717        65  POPC      N              22.7608904403      -36.1488297017       17.3834464069  MEMB      65              0.0000000000
      6718        65  POPC      C12            22.7814968689      -36.2780803389       18.8941040964  MEMB      65              0.0000000000
      6719        65  POPC      H12A           23.1373478254      -37.2768376256       19.0996618044  MEMB      65              0.0000000000
      6720        65  POPC      H12B           21.8018258084      -36.0985585087       19.3117360764  MEMB      65              0.0000000000
      6721        65  POPC      C13            24.0885076123      -36.3358130612       16.6902798329  MEMB      65              0.0000000000
      6722        65  POPC      H13A           23.8815798004      -36.5143261254       15.6454287701  MEMB      65              0.0000000000
      6723        65  POPC      H13B           24.7251476182      -35.4667278252       16.7663078385  MEMB      65              0.0000000000
      6724        65  POPC      H13C           24.6581950704      -37.1611474596       17.0911282944  MEMB      65              0.0000000000
      6725        65  POPC      C14            21.7988284002      -37.2605953653       16.8295421825  MEMB      65              0.0000000000
      6726        65  POPC      H14A           22.2604174653      -38.2155693991       17.0329145040  MEMB      65              0.0000000000
      6727        65  POPC      H14B           20.8482119254      -37.1861329190       17.3366748463  MEMB      65              0.0000000000
      6728        65  POPC      H14C           21.7735566677      -37.1496843346       15.7555495979  MEMB      65              0.0000000000
      6729        65  POPC      C15            22.1262597711      -34.8141688370       17.0761960825  MEMB      65              0.0000000000
      6730        65  POPC      H15A           22.0428996866      -34.4721411137       16.0551826189  MEMB      65              0.0000000000
      6731        65  POPC      H15B           22.7489104527      -34.1083703446       17.6058699787  MEMB      65              0.0000000000
      6732        65  POPC      H15C           21.1643641826      -34.6554951078       17.5409320460  MEMB      65              0.0000000000
      6733        65  POPC      C11            23.6901669546      -35.4052739823       19.7808627179  MEMB      65              0.0000000000
      6734        65  POPC      H11A           24.6852279548      -35.4781201464       19.2921210917  MEMB      65              0.0000000000
      6735        65  POPC      H11B           23.8114386453      -35.8016096692       20.8116547565  MEMB      65              0.0000000000
      6736        65  POPC      P              21.9305153942      -33.6388700159       20.5649181126  MEMB      65              0.0000000000
      6737        65  POPC      O13            22.1595061896      -32.2995158666       21.1330784319  MEMB      65              0.0000000000
      6738        65  POPC      O14            21.5065776996      -34.7314068541       21.4952979291  MEMB      65              0.0000000000
      6739        65  POPC      O12            23.2192760570      -34.0173653134       19.7951493492  MEMB      65              0.0000000000
      6740        65  POPC      O11            20.9282731031      -33.5650882560       19.3571248569  MEMB      65              0.0000000000
      6741        65  POPC      C1             19.8782425652      -32.5115518012       19.3581030072  MEMB      65              0.0000000000
      6742        65  POPC      HA             20.0869224769      -31.6534671611       20.0322427675  MEMB      65              0.0000000000
      6743        65  POPC      HB             18.8812615030      -32.8559477935       19.7070173855  MEMB      65              0.0000000000
      6744        65  POPC      C2             19.7114497303      -31.8497018906       17.9660391461  MEMB      65              0.0000000000
      6745        65  POPC      HS             18.8817325046      -31.1224083658       17.8359075515  MEMB      65              0.0000000000
      6746        65  POPC      O21            19.4689091387      -32.8437136013       16.9400935564  MEMB      65              0.0000000000
      6747        65  POPC      C21            18.2692257350      -33.3957893311       16.9135343045  MEMB      65              0.0000000000
      6748        65  POPC      O22            17.3639654838      -33.0308248300       17.6144309253  MEMB      65              0.0000000000
      6749        65  POPC      C22            18.2220157162      -34.6277277445       15.9070580766  MEMB      65              0.0000000000
      6750        65  POPC      H2R            17.1694077596      -34.9687707031       15.8069219654  MEMB      65              0.0000000000
      6751        65  POPC      H2S            18.7713371715      -35.5070140351       16.3063352692  MEMB      65              0.0000000000
      6752        65  POPC      C3             20.9237189279      -31.0327378877       17.5807172553  MEMB      65              0.0000000000
      6753        65  POPC      HX             20.8276613414      -30.1643136194       18.2669629992  MEMB      65              0.0000000000
      6754        65  POPC      HY             20.8726629556      -30.6132624948       16.5532178760  MEMB      65              0.0000000000
      6755        65  POPC      O31            22.2215562768      -31.6514642563       17.7747417407  MEMB      65              0.0000000000
      6756        65  POPC      C31            23.2218274068      -30.8394823471       17.2578083913  MEMB      65              0.0000000000
      6757        65  POPC      O32            23.1191426388      -29.6521396206       17.1448406837  MEMB      65              0.0000000000
      6758        65  POPC      C32            24.4218828384      -31.6957608326       16.9164191800  MEMB      65              0.0000000000
      6759        65  POPC      H2X            24.3108687583      -32.7141679119       17.3463535254  MEMB      65              0.0000000000
      6760        65  POPC      H2Y            25.3154863948      -31.3224204217       17.4608553994  MEMB      65              0.0000000000
      6761        65  POPC      C23            18.9219945785      -34.3361924216       14.5468258414  MEMB      65              0.0000000000
      6762        65  POPC      H3R            19.9501168185      -33.9404591569       14.6906343921  MEMB      65              0.0000000000
      6763        65  POPC      H3S            18.2443245786      -33.6037945439       14.0582798550  MEMB      65              0.0000000000
      6764        65  POPC      C24            18.8347243370      -35.5821941935       13.6719185670  MEMB      65              0.0000000000
      6765        65  POPC      H4R            17.8249277849      -35.9099625068       13.3445047609  MEMB      65              0.0000000000
      6766        65  POPC      H4S            19.3189679059      -36.4373794118       14.1900757749  MEMB      65              0.0000000000
      6767        65  POPC      C25            19.6773235023      -35.2852088558       12.3409851444  MEMB      65              0.0000000000
      6768        65  POPC      H5R            19.7773252633      -36.2117694725       11.7361660804  MEMB      65              0.0000000000
      6769        65  POPC      H5S            20.7177401289      -35.0292036011       12.6347801047  MEMB      65              0.0000000000
      6770        65  POPC      C26            19.0189640040      -34.1320203857       11.5357310070  MEMB      65              0.0000000000
      6771        65  POPC      H6R            19.1028047569      -33.2487572140       12.2044148867  MEMB      65              0.0000000000
      6772        65  POPC      H6S            17.9581092861      -34.3690093950       11.3060699694  MEMB      65              0.0000000000
      6773        65  POPC      C27            19.6393032710      -33.6389390124       10.2205840412  MEMB      65              0.0000000000
      6774        65  POPC      H7R            20.7150823704      -33.9129716376       10.2644767100  MEMB      65              0.0000000000
      6775        65  POPC      H7S            19.6401885215      -32.5316838461       10.1294451732  MEMB      65              0.0000000000
      6776        65  POPC      C28            19.2545959317      -34.4199311074        8.9671855211  MEMB      65              0.0000000000
      6777        65  POPC      H8R            19.0136762230      -35.4744311213        9.2207776868  MEMB      65              0.0000000000
      6778        65  POPC      H8S            20.1075405337      -34.3353567929        8.2603238477  MEMB      65              0.0000000000
      6779        65  POPC      C29            17.9896729130      -33.7640656701        8.3727779900  MEMB      65              0.0000000000
      6780        65  POPC      H91            17.1233907450      -33.6183160071        9.0348296375  MEMB      65              0.0000000000
      6781        65  POPC      C210           17.8091248453      -33.3086029377        7.0656302053  MEMB      65              0.0000000000
      6782        65  POPC      H101           16.9068892968      -32.7681185052        6.7433757732  MEMB      65              0.0000000000
      6783        65  POPC      C211           18.8232495091      -33.3289468935        5.9314036025  MEMB      65              0.0000000000
      6784        65  POPC      H11R           19.8654363697      -33.4163636922        6.3062710739  MEMB      65              0.0000000000
      6785        65  POPC      H11S           18.7931969500      -32.3988256911        5.3245324037  MEMB      65              0.0000000000
      6786        65  POPC      C212           18.5610255375      -34.4949733021        4.9489306480  MEMB      65              0.0000000000
      6787        65  POPC      H12R           18.6487245469      -35.4528507700        5.5049000369  MEMB      65              0.0000000000
      6788        65  POPC      H12S           19.3233203339      -34.4869997147        4.1407454905  MEMB      65              0.0000000000
      6789        65  POPC      C213           17.1428560904      -34.4630109592        4.3423773660  MEMB      65              0.0000000000
      6790        65  POPC      H13R           16.3676488498      -34.3916810527        5.1350231181  MEMB      65              0.0000000000
      6791        65  POPC      H13S           16.9380584046      -35.3697266109        3.7338989575  MEMB      65              0.0000000000
      6792        65  POPC      C214           16.9634250990      -33.2605297891        3.4094204239  MEMB      65              0.0000000000
      6793        65  POPC      H14R           16.7689117571      -32.3420211197        4.0034127857  MEMB      65              0.0000000000
      6794        65  POPC      H14S           16.0976219697      -33.4233497951        2.7325182609  MEMB      65              0.0000000000
      6795        65  POPC      C215           18.0304075862      -33.0027004076        2.3554786852  MEMB      65              0.0000000000
      6796        65  POPC      H15R           18.3794566436      -33.8934241270        1.7905916857  MEMB      65              0.0000000000
      6797        65  POPC      H15S           18.9917846130      -32.6528727052        2.7887181605  MEMB      65              0.0000000000
      6798        65  POPC      C216           17.5870954520      -31.8814271341        1.4552357134  MEMB      65              0.0000000000
      6799        65  POPC      H16R           17.2583684868      -31.0142759372        2.0670427826  MEMB      65              0.0000000000
      6800        65  POPC      H16S           16.7959685569      -32.2931185934        0.7927038877  MEMB      65              0.0000000000
      6801        65  POPC      C217           18.7287261976      -31.2911257490        0.5743793140  MEMB      65              0.0000000000
      6802        65  POPC      H17R           19.6742286245      -31.0816927704        1.1188820703  MEMB      65              0.0000000000
      6803        65  POPC      H17S           18.4838097352      -30.4137575397       -0.0616721484  MEMB      65              0.0000000000
      6804        65  POPC      C218           19.2309856891      -32.3655413781       -0.5033442702  MEMB      65              0.0000000000
      6805        65  POPC      H18R           19.2372392290      -33.3849540278       -0.0616644596  MEMB      65              0.0000000000
      6806        65  POPC      H18S           20.2381576198      -32.0020125585       -0.7996079236  MEMB      65              0.0000000000
      6807        65  POPC      H18T           18.6575785782      -32.3291914088       -1.4542404483  MEMB      65              0.0000000000
      6808        65  POPC      C33            24.7035051570      -31.8174756497       15.3825751529  MEMB      65              0.0000000000
      6809        65  POPC      H3X            25.8084043671      -31.9201685607       15.3280489648  MEMB      65              0.0000000000
      6810        65  POPC      H3Y            24.3959674609      -30.8852960165       14.8622075087  MEMB      65              0.0000000000
      6811        65  POPC      C34            23.8311776414      -32.8471814641       14.6809272326  MEMB      65              0.0000000000
      6812        65  POPC      H4X            22.7462318341      -32.8717480867       14.9188557874  MEMB      65              0.0000000000
      6813        65  POPC      H4Y            24.1806114905      -33.8686149151       14.9433981579  MEMB      65              0.0000000000
      6814        65  POPC      C35            24.0359814310      -32.8390316745       13.0867261936  MEMB      65              0.0000000000
      6815        65  POPC      H5X            23.2352450698      -32.1605925442       12.7222229637  MEMB      65              0.0000000000
      6816        65  POPC      H5Y            23.7410978138      -33.8541484333       12.7448160769  MEMB      65              0.0000000000
      6817        65  POPC      C36            25.4257765395      -32.5028030695       12.6835487903  MEMB      65              0.0000000000
      6818        65  POPC      H6X            26.1460143640      -33.1408658809       13.2389352304  MEMB      65              0.0000000000
      6819        65  POPC      H6Y            25.5685659302      -31.4174674511       12.8732294800  MEMB      65              0.0000000000
      6820        65  POPC      C37            25.6838711170      -32.8375227818       11.2058365138  MEMB      65              0.0000000000
      6821        65  POPC      H7X            25.9105816275      -33.9241787371       11.1599875067  MEMB      65              0.0000000000
      6822        65  POPC      H7Y            26.5952160872      -32.2143498319       11.0816325988  MEMB      65              0.0000000000
      6823        65  POPC      C38            24.5318886529      -32.5529394843       10.2025274672  MEMB      65              0.0000000000
      6824        65  POPC      H8X            24.4281313283      -31.4470434709       10.2259668758  MEMB      65              0.0000000000
      6825        65  POPC      H8Y            23.5832063539      -32.9884387810       10.5828736503  MEMB      65              0.0000000000
      6826        65  POPC      C39            24.8856899830      -33.1174168165        8.7749838805  MEMB      65              0.0000000000
      6827        65  POPC      H9X            25.2293246494      -34.1709335333        8.8546011030  MEMB      65              0.0000000000
      6828        65  POPC      H9Y            25.6913026202      -32.3927411787        8.5297199953  MEMB      65              0.0000000000
      6829        65  POPC      C310           23.7003951655      -33.0151861390        7.7016076788  MEMB      65              0.0000000000
      6830        65  POPC      H10X           23.4866209411      -31.9288291473        7.6096862641  MEMB      65              0.0000000000
      6831        65  POPC      H10Y           22.7039609641      -33.3264205955        8.0818350271  MEMB      65              0.0000000000
      6832        65  POPC      C311           24.0804099143      -33.7267558858        6.3500527801  MEMB      65              0.0000000000
      6833        65  POPC      H11X           23.9496132971      -34.8221171928        6.4819507065  MEMB      65              0.0000000000
      6834        65  POPC      H11Y           25.1268140732      -33.4460610912        6.1039434383  MEMB      65              0.0000000000
      6835        65  POPC      C312           23.1821398087      -33.3458016393        5.1145921162  MEMB      65              0.0000000000
      6836        65  POPC      H12X           23.0543871937      -32.2422624919        5.1003905848  MEMB      65              0.0000000000
      6837        65  POPC      H12Y           22.1454204518      -33.7426172850        5.1601013052  MEMB      65              0.0000000000
      6838        65  POPC      C313           23.8206767159      -33.7244312988        3.8248511310  MEMB      65              0.0000000000
      6839        65  POPC      H13X           23.9184582813      -34.8289381658        3.7553913508  MEMB      65              0.0000000000
      6840        65  POPC      H13Y           24.8742124720      -33.4081410383        3.6688258036  MEMB      65              0.0000000000
      6841        65  POPC      C314           23.1404408296      -33.0674747980        2.6244051216  MEMB      65              0.0000000000
      6842        65  POPC      H14X           23.7959634114      -33.3188850522        1.7633562818  MEMB      65              0.0000000000
      6843        65  POPC      H14Y           23.0546981898      -31.9604074240        2.6614294618  MEMB      65              0.0000000000
      6844        65  POPC      C315           21.8269197596      -33.7237935447        2.1892147654  MEMB      65              0.0000000000
      6845        65  POPC      H15X           21.3683009919      -33.2953463361        1.2724703548  MEMB      65              0.0000000000
      6846        65  POPC      H15Y           21.1384948987      -33.5403716361        3.0417104064  MEMB      65              0.0000000000
      6847        65  POPC      C316           21.7829216312      -35.3140019692        2.0504516959  MEMB      65              0.0000000000
      6848        65  POPC      H16X           20.7200052706      -35.5472648447        1.8265795187  MEMB      65              0.0000000000
      6849        65  POPC      H16Y           22.1995783412      -35.7681878802        2.9748064647  MEMB      65              0.0000000000
      6850        65  POPC      H16Z           22.4051603335      -35.5841554434        1.1705892157  MEMB      65              0.0000000000
      6851        66  POPC      N               0.4864777679      -48.4043485929       20.9766932902  MEMB      66              0.0000000000
      6852        66  POPC      C12             1.1756453635      -49.1285688439       19.8421857290  MEMB      66              0.0000000000
      6853        66  POPC      H12A            0.9945169549      -50.1846169391       19.9776658582  MEMB      66              0.0000000000
      6854        66  POPC      H12B            2.2500628592      -49.0596653988       19.9275047243  MEMB      66              0.0000000000
      6855        66  POPC      C13             1.0756799133      -48.8670491100       22.2847380028  MEMB      66              0.0000000000
      6856        66  POPC      H13A            2.1094844046      -48.5605551335       22.3456456915  MEMB      66              0.0000000000
      6857        66  POPC      H13B            0.4972254670      -48.3282401014       23.0205881028  MEMB      66              0.0000000000
      6858        66  POPC      H13C            0.9244596003      -49.9291773056       22.4088991338  MEMB      66              0.0000000000
      6859        66  POPC      C14             0.9515694367      -46.9844425789       20.6582500478  MEMB      66              0.0000000000
      6860        66  POPC      H14A            2.0275964435      -46.9072825044       20.6071411605  MEMB      66              0.0000000000
      6861        66  POPC      H14B            0.4718517689      -46.8531854428       19.6995830003  MEMB      66              0.0000000000
      6862        66  POPC      H14C            0.5383559141      -46.2374182583       21.3197704209  MEMB      66              0.0000000000
      6863        66  POPC      C15            -1.0055825548      -48.5246910200       21.0011658208  MEMB      66              0.0000000000
      6864        66  POPC      H15A           -1.4752858141      -48.2440579141       20.0700246297  MEMB      66              0.0000000000
      6865        66  POPC      H15B           -1.3962875137      -47.7523529716       21.6471098607  MEMB      66              0.0000000000
      6866        66  POPC      H15C           -1.2808830747      -49.5166284451       21.3277691387  MEMB      66              0.0000000000
      6867        66  POPC      C11             0.7836105944      -48.7653837308       18.3847107861  MEMB      66              0.0000000000
      6868        66  POPC      H11A            1.3748198803      -49.4183388564       17.7076272029  MEMB      66              0.0000000000
      6869        66  POPC      H11B            1.2044056089      -47.7445600109       18.2615382023  MEMB      66              0.0000000000
      6870        66  POPC      P              -1.2243145041      -48.1267036010       17.1515080714  MEMB      66              0.0000000000
      6871        66  POPC      O13            -1.4859529461      -46.8280081271       17.7744506625  MEMB      66              0.0000000000
      6872        66  POPC      O14            -2.4757562942      -48.8399555437       16.7349907415  MEMB      66              0.0000000000
      6873        66  POPC      O12            -0.5517032505      -48.9585200447       18.1844001138  MEMB      66              0.0000000000
      6874        66  POPC      O11            -0.2368330391      -48.0491549053       16.0069067300  MEMB      66              0.0000000000
      6875        66  POPC      C1              0.0845193620      -49.2801640152       15.2562747883  MEMB      66              0.0000000000
      6876        66  POPC      HA             -0.3429393885      -50.2215529026       15.6629527915  MEMB      66              0.0000000000
      6877        66  POPC      HB              1.1837315071      -49.4352344530       15.3010721585  MEMB      66              0.0000000000
      6878        66  POPC      C2             -0.3566828486      -49.1768383360       13.7695704616  MEMB      66              0.0000000000
      6879        66  POPC      HS              0.1507769481      -49.9544292523       13.1595230192  MEMB      66              0.0000000000
      6880        66  POPC      O21            -0.1553579946      -47.8017425393       13.4047819635  MEMB      66              0.0000000000
      6881        66  POPC      C21             1.1813618469      -47.4786744413       13.3286423382  MEMB      66              0.0000000000
      6882        66  POPC      O22             2.0859053435      -48.2907463227       13.4392163070  MEMB      66              0.0000000000
      6883        66  POPC      C22             1.4227790368      -45.9598757482       12.9757247593  MEMB      66              0.0000000000
      6884        66  POPC      H2R             2.3142577659      -45.9638368197       12.3127236038  MEMB      66              0.0000000000
      6885        66  POPC      H2S             1.6075498531      -45.5123782948       13.9756884605  MEMB      66              0.0000000000
      6886        66  POPC      C3             -1.7792222933      -49.5269209343       13.5710383899  MEMB      66              0.0000000000
      6887        66  POPC      HX             -2.3947357279      -48.7406385649       14.0580950752  MEMB      66              0.0000000000
      6888        66  POPC      HY             -1.9641529833      -50.5123991708       14.0495302715  MEMB      66              0.0000000000
      6889        66  POPC      O31            -2.2509353585      -49.4763805572       12.2118646763  MEMB      66              0.0000000000
      6890        66  POPC      C31            -1.7726598560      -50.4611278375       11.4725856243  MEMB      66              0.0000000000
      6891        66  POPC      O32            -1.0822285195      -51.4271917418       11.7733350286  MEMB      66              0.0000000000
      6892        66  POPC      C32            -2.2088581686      -50.1362066701       10.1142833908  MEMB      66              0.0000000000
      6893        66  POPC      H2X            -2.1679426369      -49.0555741808        9.8595673511  MEMB      66              0.0000000000
      6894        66  POPC      H2Y            -3.2388856569      -50.5123343072        9.9357003415  MEMB      66              0.0000000000
      6895        66  POPC      C23             0.3265547034      -45.2106552354       12.3492095873  MEMB      66              0.0000000000
      6896        66  POPC      H3R            -0.3861899990      -44.9167400506       13.1491656559  MEMB      66              0.0000000000
      6897        66  POPC      H3S            -0.0340572193      -45.7977834937       11.4776822063  MEMB      66              0.0000000000
      6898        66  POPC      C24             0.7356519675      -43.8625396118       11.7933667581  MEMB      66              0.0000000000
      6899        66  POPC      H4R             1.6962428117      -43.4877293852       12.2070137400  MEMB      66              0.0000000000
      6900        66  POPC      H4S            -0.1178457768      -43.2092179146       12.0744956834  MEMB      66              0.0000000000
      6901        66  POPC      C25             1.0073209642      -43.9797433405       10.2770346701  MEMB      66              0.0000000000
      6902        66  POPC      H5R             1.7571060827      -44.7904974626       10.1552934926  MEMB      66              0.0000000000
      6903        66  POPC      H5S             1.5918908429      -43.1068903482        9.9154726190  MEMB      66              0.0000000000
      6904        66  POPC      C26            -0.1452345477      -44.1513287876        9.2533706073  MEMB      66              0.0000000000
      6905        66  POPC      H6R            -0.8292386167      -43.2762296065        9.2790704284  MEMB      66              0.0000000000
      6906        66  POPC      H6S            -0.7630250672      -45.0158027239        9.5779335311  MEMB      66              0.0000000000
      6907        66  POPC      C27             0.2455087680      -44.1717711805        7.7599293867  MEMB      66              0.0000000000
      6908        66  POPC      H7R             1.0730100657      -43.4523964195        7.5808682764  MEMB      66              0.0000000000
      6909        66  POPC      H7S            -0.5227768056      -43.9975163474        6.9765433019  MEMB      66              0.0000000000
      6910        66  POPC      C28             0.8718130156      -45.6215740686        7.3746200287  MEMB      66              0.0000000000
      6911        66  POPC      H8R             1.9540434786      -45.6026978195        7.6251026757  MEMB      66              0.0000000000
      6912        66  POPC      H8S             0.8208592138      -45.7439101606        6.2715521633  MEMB      66              0.0000000000
      6913        66  POPC      C29             0.1272482797      -46.7746184061        7.9053653779  MEMB      66              0.0000000000
      6914        66  POPC      H91            -0.9362477164      -46.6904796059        7.6372287211  MEMB      66              0.0000000000
      6915        66  POPC      C210            0.5197426548      -47.7623266617        8.7719345034  MEMB      66              0.0000000000
      6916        66  POPC      H101           -0.2298342979      -48.5229972879        9.0355903025  MEMB      66              0.0000000000
      6917        66  POPC      C211            1.9334684793      -47.8983998938        9.3536177211  MEMB      66              0.0000000000
      6918        66  POPC      H11R            1.9024660278      -47.9786726187       10.4612806153  MEMB      66              0.0000000000
      6919        66  POPC      H11S            2.5680533227      -47.0142394728        9.1302718461  MEMB      66              0.0000000000
      6920        66  POPC      C212            2.6741687089      -49.1236312598        8.8000130577  MEMB      66              0.0000000000
      6921        66  POPC      H12R            2.0728004021      -50.0459998875        8.9480444998  MEMB      66              0.0000000000
      6922        66  POPC      H12S            3.5975741860      -49.3124536353        9.3882216610  MEMB      66              0.0000000000
      6923        66  POPC      C213            3.1201583117      -49.0325926287        7.3430986280  MEMB      66              0.0000000000
      6924        66  POPC      H13R            3.8507812823      -48.1972205087        7.2914784003  MEMB      66              0.0000000000
      6925        66  POPC      H13S            2.2735832656      -48.8911049491        6.6376818548  MEMB      66              0.0000000000
      6926        66  POPC      C214            3.9513810469      -50.1041356958        6.8163494631  MEMB      66              0.0000000000
      6927        66  POPC      H14R            3.3530885786      -51.0389633702        6.7667082005  MEMB      66              0.0000000000
      6928        66  POPC      H14S            4.8324693767      -50.2782516319        7.4703273684  MEMB      66              0.0000000000
      6929        66  POPC      C215            4.5217313740      -49.8038252699        5.3525349391  MEMB      66              0.0000000000
      6930        66  POPC      H15R            5.4653777559      -50.3248653236        5.0835185246  MEMB      66              0.0000000000
      6931        66  POPC      H15S            4.7488667986      -48.7172757368        5.3062686772  MEMB      66              0.0000000000
      6932        66  POPC      C216            3.4075303339      -50.2763634599        4.3433808975  MEMB      66              0.0000000000
      6933        66  POPC      H16R            2.6952077131      -50.9827519577        4.8208037592  MEMB      66              0.0000000000
      6934        66  POPC      H16S            3.8733841118      -50.9649802772        3.6064219440  MEMB      66              0.0000000000
      6935        66  POPC      C217            2.7052421497      -49.1531515980        3.5539006424  MEMB      66              0.0000000000
      6936        66  POPC      H17R            3.4973302514      -48.4465237369        3.2258845587  MEMB      66              0.0000000000
      6937        66  POPC      H17S            2.0918331427      -48.5050176001        4.2156960881  MEMB      66              0.0000000000
      6938        66  POPC      C218            1.9335230176      -49.6101404739        2.3441422336  MEMB      66              0.0000000000
      6939        66  POPC      H18R            1.0303591593      -50.0866395634        2.7818229695  MEMB      66              0.0000000000
      6940        66  POPC      H18S            2.6031833326      -50.3689582291        1.8858068184  MEMB      66              0.0000000000
      6941        66  POPC      H18T            1.6771487431      -48.7056293780        1.7521507504  MEMB      66              0.0000000000
      6942        66  POPC      C33            -1.1884978249      -50.7982567083        9.2396109818  MEMB      66              0.0000000000
      6943        66  POPC      H3X            -1.2149825560      -51.9030871831        9.3534918643  MEMB      66              0.0000000000
      6944        66  POPC      H3Y            -0.1691767145      -50.3972045276        9.4252517359  MEMB      66              0.0000000000
      6945        66  POPC      C34            -1.3549421438      -50.7576139791        7.6923096545  MEMB      66              0.0000000000
      6946        66  POPC      H4X            -1.1692139465      -49.6745279984        7.5287530791  MEMB      66              0.0000000000
      6947        66  POPC      H4Y            -2.3756104214      -51.0150654231        7.3369559304  MEMB      66              0.0000000000
      6948        66  POPC      C35            -0.3755783969      -51.6686677647        7.0054927499  MEMB      66              0.0000000000
      6949        66  POPC      H5X            -0.4747407966      -52.7483843419        7.2477733306  MEMB      66              0.0000000000
      6950        66  POPC      H5Y             0.6577136794      -51.3370697367        7.2435498934  MEMB      66              0.0000000000
      6951        66  POPC      C36            -0.5469492148      -51.5135086419        5.5315906634  MEMB      66              0.0000000000
      6952        66  POPC      H6X             0.3669263066      -51.7381462316        4.9410909346  MEMB      66              0.0000000000
      6953        66  POPC      H6Y            -0.8568578800      -50.4727061655        5.2970536960  MEMB      66              0.0000000000
      6954        66  POPC      C37            -1.6933254412      -52.4447948656        4.9833646691  MEMB      66              0.0000000000
      6955        66  POPC      H7X            -2.6432377905      -52.2318750088        5.5187642938  MEMB      66              0.0000000000
      6956        66  POPC      H7Y            -1.4731163982      -53.5230906120        5.1353759629  MEMB      66              0.0000000000
      6957        66  POPC      C38            -2.0632226968      -52.2171721756        3.5076287080  MEMB      66              0.0000000000
      6958        66  POPC      H8X            -2.8452650597      -52.9779304995        3.2979202821  MEMB      66              0.0000000000
      6959        66  POPC      H8Y            -1.1886178375      -52.4580801021        2.8662616980  MEMB      66              0.0000000000
      6960        66  POPC      C39            -2.5243328643      -50.7893552022        3.1072946839  MEMB      66              0.0000000000
      6961        66  POPC      H9X            -1.6216403968      -50.2075496739        3.3918463280  MEMB      66              0.0000000000
      6962        66  POPC      H9Y            -3.4134709728      -50.3707049674        3.6254515412  MEMB      66              0.0000000000
      6963        66  POPC      C310           -2.7789885568      -50.6309237135        1.6312502849  MEMB      66              0.0000000000
      6964        66  POPC      H10X           -3.2761181961      -51.5542676297        1.2643448600  MEMB      66              0.0000000000
      6965        66  POPC      H10Y           -1.8096523526      -50.6030679445        1.0890949960  MEMB      66              0.0000000000
      6966        66  POPC      C311           -3.5731608667      -49.4464345503        1.3376564162  MEMB      66              0.0000000000
      6967        66  POPC      H11X           -4.3707450813      -49.3427202212        2.1040915392  MEMB      66              0.0000000000
      6968        66  POPC      H11Y           -4.1329230484      -49.4376911987        0.3780148644  MEMB      66              0.0000000000
      6969        66  POPC      C312           -2.7612916557      -48.1162866260        1.3843666483  MEMB      66              0.0000000000
      6970        66  POPC      H12X           -1.9692236327      -48.0852628669        2.1628189650  MEMB      66              0.0000000000
      6971        66  POPC      H12Y           -3.4834330252      -47.2939979361        1.5758728696  MEMB      66              0.0000000000
      6972        66  POPC      C313           -2.2567945727      -47.7537060227       -0.0576437669  MEMB      66              0.0000000000
      6973        66  POPC      H13X           -3.0311776305      -47.7650358397       -0.8542135327  MEMB      66              0.0000000000
      6974        66  POPC      H13Y           -1.5916458371      -48.5982879198       -0.3379639819  MEMB      66              0.0000000000
      6975        66  POPC      C314           -1.4496322569      -46.4458048237       -0.0726045182  MEMB      66              0.0000000000
      6976        66  POPC      H14X           -0.4808340684      -46.5193384438        0.4662306914  MEMB      66              0.0000000000
      6977        66  POPC      H14Y           -2.0099924034      -45.5628233756        0.3024441468  MEMB      66              0.0000000000
      6978        66  POPC      C315           -1.0932547416      -46.0628325707       -1.5650145815  MEMB      66              0.0000000000
      6979        66  POPC      H15X           -0.8146374091      -46.9737198926       -2.1368329783  MEMB      66              0.0000000000
      6980        66  POPC      H15Y           -0.2542788100      -45.3445122565       -1.4447805981  MEMB      66              0.0000000000
      6981        66  POPC      C316           -2.1856559358      -45.1954910043       -2.2424871653  MEMB      66              0.0000000000
      6982        66  POPC      H16X           -2.3013437918      -44.2584775408       -1.6568744485  MEMB      66              0.0000000000
      6983        66  POPC      H16Y           -3.0848718854      -45.8479043800       -2.2330918674  MEMB      66              0.0000000000
      6984        66  POPC      H16Z           -1.8309508099      -44.9442392660       -3.2649251666  MEMB      66              0.0000000000
      6985        67  POPC      N              28.5482130900       38.2569932452       18.8687063168  MEMB      67              0.0000000000
      6986        67  POPC      C12            28.8301452030       37.1428079106       19.8951036405  MEMB      67              0.0000000000
      6987        67  POPC      H12A           27.9021796997       36.8862867189       20.3844674060  MEMB      67              0.0000000000
      6988        67  POPC      H12B           29.4534377513       37.5725221033       20.6653323285  MEMB      67              0.0000000000
      6989        67  POPC      C13            29.7417395715       38.4849813787       18.0103319068  MEMB      67              0.0000000000
      6990        67  POPC      H13A           30.0110313777       37.5582533873       17.5255049539  MEMB      67              0.0000000000
      6991        67  POPC      H13B           29.5159710106       39.2669939778       17.3004834130  MEMB      67              0.0000000000
      6992        67  POPC      H13C           30.4979831803       38.8490450278       18.6900033695  MEMB      67              0.0000000000
      6993        67  POPC      C14            27.3689017282       37.8533166157       18.0334285544  MEMB      67              0.0000000000
      6994        67  POPC      H14A           26.8570040133       38.6848273169       17.5719626237  MEMB      67              0.0000000000
      6995        67  POPC      H14B           27.7012163901       37.2593586890       17.1948696817  MEMB      67              0.0000000000
      6996        67  POPC      H14C           26.6028866395       37.3574326416       18.6111135124  MEMB      67              0.0000000000
      6997        67  POPC      C15            28.1929129358       39.5725976955       19.7093427128  MEMB      67              0.0000000000
      6998        67  POPC      H15A           29.0452501125       39.8883867485       20.2926082114  MEMB      67              0.0000000000
      6999        67  POPC      H15B           27.2803957379       39.4239499822       20.2675684071  MEMB      67              0.0000000000
      7000        67  POPC      H15C           28.0634038215       40.4164155529       19.0478302316  MEMB      67              0.0000000000
      7001        67  POPC      C11            29.4030414728       35.7220289393       19.4117153846  MEMB      67              0.0000000000
      7002        67  POPC      H11A           29.8115095354       35.1969809619       20.3015465424  MEMB      67              0.0000000000
      7003        67  POPC      H11B           30.3182543613       35.9419400374       18.8215073572  MEMB      67              0.0000000000
      7004        67  POPC      P              27.5280362598       33.9373793083       19.0875098138  MEMB      67              0.0000000000
      7005        67  POPC      O13            26.3257386001       34.5939886248       19.6185409050  MEMB      67              0.0000000000
      7006        67  POPC      O14            28.3693427290       33.1348528742       20.0643574291  MEMB      67              0.0000000000
      7007        67  POPC      O12            28.4531417076       35.0297601894       18.5796588454  MEMB      67              0.0000000000
      7008        67  POPC      O11            26.9902034061       33.1276575165       17.7213044956  MEMB      67              0.0000000000
      7009        67  POPC      C1             27.9877975445       32.8662105336       16.7375147042  MEMB      67              0.0000000000
      7010        67  POPC      HA             27.6041945944       31.9841255095       16.1815509834  MEMB      67              0.0000000000
      7011        67  POPC      HB             28.9948938467       32.6211608408       17.1375508354  MEMB      67              0.0000000000
      7012        67  POPC      C2             28.1948318230       33.9381456650       15.6382913968  MEMB      67              0.0000000000
      7013        67  POPC      HS             28.7240028101       34.7659088611       16.1570465820  MEMB      67              0.0000000000
      7014        67  POPC      O21            26.9074691311       34.3985189327       15.3565637548  MEMB      67              0.0000000000
      7015        67  POPC      C21            26.7611200770       35.7074386769       15.1319491116  MEMB      67              0.0000000000
      7016        67  POPC      O22            27.6429690949       36.4954707310       15.0455211485  MEMB      67              0.0000000000
      7017        67  POPC      C22            25.2987415159       36.0425785656       14.9406186294  MEMB      67              0.0000000000
      7018        67  POPC      H2R            24.6945205881       35.7915367516       15.8385139221  MEMB      67              0.0000000000
      7019        67  POPC      H2S            24.8921545021       35.4966847551       14.0625477885  MEMB      67              0.0000000000
      7020        67  POPC      C3             28.8588235128       33.3396322379       14.3870374232  MEMB      67              0.0000000000
      7021        67  POPC      HX             28.1890924203       32.5893809572       13.9149104058  MEMB      67              0.0000000000
      7022        67  POPC      HY             29.7164206560       32.6994238553       14.6853353620  MEMB      67              0.0000000000
      7023        67  POPC      O31            29.2597210811       34.3424478448       13.4545034809  MEMB      67              0.0000000000
      7024        67  POPC      C31            30.3886850878       34.9441215458       13.8331450563  MEMB      67              0.0000000000
      7025        67  POPC      O32            31.2116200723       34.5758878948       14.6478900949  MEMB      67              0.0000000000
      7026        67  POPC      C32            30.6019550411       36.1347744114       12.8651448957  MEMB      67              0.0000000000
      7027        67  POPC      H2X            31.2962034942       36.8656029844       13.3322947868  MEMB      67              0.0000000000
      7028        67  POPC      H2Y            29.5951546721       36.5959667855       12.7758394355  MEMB      67              0.0000000000
      7029        67  POPC      C23            25.1371304571       37.5707090481       14.7029987806  MEMB      67              0.0000000000
      7030        67  POPC      H3R            25.7505154567       38.1349370571       15.4376598543  MEMB      67              0.0000000000
      7031        67  POPC      H3S            24.1037622521       37.9617087792       14.8195758327  MEMB      67              0.0000000000
      7032        67  POPC      C24            25.6317007827       37.9355523460       13.2322107666  MEMB      67              0.0000000000
      7033        67  POPC      H4R            26.6425881811       37.5112158265       13.0523048881  MEMB      67              0.0000000000
      7034        67  POPC      H4S            25.7701175665       39.0378160618       13.2189234685  MEMB      67              0.0000000000
      7035        67  POPC      C25            24.7368555382       37.6518235892       12.1049539521  MEMB      67              0.0000000000
      7036        67  POPC      H5R            23.7946379601       38.2082687894       12.2970891899  MEMB      67              0.0000000000
      7037        67  POPC      H5S            24.5402403548       36.5602264680       12.1688230143  MEMB      67              0.0000000000
      7038        67  POPC      C26            25.4400941992       37.9750335026       10.7682816957  MEMB      67              0.0000000000
      7039        67  POPC      H6R            26.3694898133       37.3663327110       10.7629806956  MEMB      67              0.0000000000
      7040        67  POPC      H6S            25.6925304364       39.0551304087       10.8314307961  MEMB      67              0.0000000000
      7041        67  POPC      C27            24.7028908223       37.5556067705        9.4968947588  MEMB      67              0.0000000000
      7042        67  POPC      H7R            23.6880448521       37.9845857422        9.6396737099  MEMB      67              0.0000000000
      7043        67  POPC      H7S            24.5927931329       36.4522080044        9.5655292467  MEMB      67              0.0000000000
      7044        67  POPC      C28            25.4486993464       37.9913475998        8.2350666504  MEMB      67              0.0000000000
      7045        67  POPC      H8R            26.2965274560       37.2846298018        8.1083451416  MEMB      67              0.0000000000
      7046        67  POPC      H8S            26.0000989958       38.9168008525        8.5067577249  MEMB      67              0.0000000000
      7047        67  POPC      C29            24.5925326791       38.2590590364        7.0221324446  MEMB      67              0.0000000000
      7048        67  POPC      H91            23.9189109677       39.1033959844        7.2302889977  MEMB      67              0.0000000000
      7049        67  POPC      C210           24.5090244768       37.5191964223        5.8779694440  MEMB      67              0.0000000000
      7050        67  POPC      H101           23.8199995201       37.9402809120        5.1310207383  MEMB      67              0.0000000000
      7051        67  POPC      C211           25.2104828621       36.3098975367        5.3712763484  MEMB      67              0.0000000000
      7052        67  POPC      H11R           26.2612421557       36.3120327412        5.7321376552  MEMB      67              0.0000000000
      7053        67  POPC      H11S           25.1217698085       36.2717910636        4.2644793656  MEMB      67              0.0000000000
      7054        67  POPC      C212           24.6179102705       35.0133092925        5.8991510040  MEMB      67              0.0000000000
      7055        67  POPC      H12R           23.5389105919       35.0727957015        5.6411936965  MEMB      67              0.0000000000
      7056        67  POPC      H12S           24.8932906011       34.9220073438        6.9716017033  MEMB      67              0.0000000000
      7057        67  POPC      C213           25.0849744558       33.8081237590        5.1279293474  MEMB      67              0.0000000000
      7058        67  POPC      H13R           24.6658215734       33.8358290156        4.0994035665  MEMB      67              0.0000000000
      7059        67  POPC      H13S           24.6619240039       32.9101469094        5.6269148451  MEMB      67              0.0000000000
      7060        67  POPC      C214           26.5830400293       33.6939928298        5.0737849147  MEMB      67              0.0000000000
      7061        67  POPC      H14R           26.9075696405       34.1067130457        6.0528985565  MEMB      67              0.0000000000
      7062        67  POPC      H14S           27.0048404067       34.2939150947        4.2392195945  MEMB      67              0.0000000000
      7063        67  POPC      C215           26.9619198461       32.1648544654        5.0334461208  MEMB      67              0.0000000000
      7064        67  POPC      H15R           26.3038148082       31.7062697861        4.2647337557  MEMB      67              0.0000000000
      7065        67  POPC      H15S           26.8142915415       31.6880920124        6.0260305207  MEMB      67              0.0000000000
      7066        67  POPC      C216           28.4588032009       31.9700682787        4.6930368045  MEMB      67              0.0000000000
      7067        67  POPC      H16R           28.7057325066       30.8870697765        4.7145231971  MEMB      67              0.0000000000
      7068        67  POPC      H16S           29.1928927530       32.4675491567        5.3623245729  MEMB      67              0.0000000000
      7069        67  POPC      C217           28.8804343276       32.5055732434        3.3087655418  MEMB      67              0.0000000000
      7070        67  POPC      H17R           29.9805004468       32.3554327880        3.2683502687  MEMB      67              0.0000000000
      7071        67  POPC      H17S           28.8338869542       33.5875679024        3.0608914551  MEMB      67              0.0000000000
      7072        67  POPC      C218           28.2277623925       31.6632162085        2.2021083200  MEMB      67              0.0000000000
      7073        67  POPC      H18R           28.7615677167       30.6918961569        2.1252322757  MEMB      67              0.0000000000
      7074        67  POPC      H18S           28.1852981773       32.1802642050        1.2196729493  MEMB      67              0.0000000000
      7075        67  POPC      H18T           27.1664500708       31.4842231207        2.4776061390  MEMB      67              0.0000000000
      7076        67  POPC      C33            31.2278445236       35.7143751304       11.5016484468  MEMB      67              0.0000000000
      7077        67  POPC      H3X            32.1909076003       35.1718695796       11.6135332807  MEMB      67              0.0000000000
      7078        67  POPC      H3Y            31.5045478538       36.7358194009       11.1634067252  MEMB      67              0.0000000000
      7079        67  POPC      C34            30.3962546516       34.9583983898       10.5085296295  MEMB      67              0.0000000000
      7080        67  POPC      H4X            29.3519533456       35.3115241725       10.3704785953  MEMB      67              0.0000000000
      7081        67  POPC      H4Y            30.3928077649       33.9108941495       10.8787236110  MEMB      67              0.0000000000
      7082        67  POPC      C35            31.0647047172       34.9014226242        9.1185471545  MEMB      67              0.0000000000
      7083        67  POPC      H5X            30.2788908906       34.3888529995        8.5234916811  MEMB      67              0.0000000000
      7084        67  POPC      H5Y            31.9800085132       34.2805399844        9.2236377329  MEMB      67              0.0000000000
      7085        67  POPC      C36            31.4175498848       36.2329418004        8.3765315523  MEMB      67              0.0000000000
      7086        67  POPC      H6X            32.0362467837       36.0297830049        7.4763858559  MEMB      67              0.0000000000
      7087        67  POPC      H6Y            32.1649242963       36.7186845631        9.0397101268  MEMB      67              0.0000000000
      7088        67  POPC      C37            30.1860489186       37.0815682341        8.0248374557  MEMB      67              0.0000000000
      7089        67  POPC      H7X            30.7092676998       37.9952832259        7.6703127775  MEMB      67              0.0000000000
      7090        67  POPC      H7Y            29.5821693493       37.2904488753        8.9336935296  MEMB      67              0.0000000000
      7091        67  POPC      C38            29.2029514497       36.5667152922        6.9590363841  MEMB      67              0.0000000000
      7092        67  POPC      H8X            28.4689805628       37.3851167771        6.7983290121  MEMB      67              0.0000000000
      7093        67  POPC      H8Y            28.7482126499       35.6350363736        7.3584209860  MEMB      67              0.0000000000
      7094        67  POPC      C39            29.9237278686       36.2857395043        5.6169603124  MEMB      67              0.0000000000
      7095        67  POPC      H9X            30.0730932359       35.1885152230        5.5269047992  MEMB      67              0.0000000000
      7096        67  POPC      H9Y            30.9195728200       36.7686658103        5.7138907701  MEMB      67              0.0000000000
      7097        67  POPC      C310           29.1910333129       36.7310565810        4.3506619561  MEMB      67              0.0000000000
      7098        67  POPC      H10X           28.9231963754       37.8070378067        4.4202953337  MEMB      67              0.0000000000
      7099        67  POPC      H10Y           28.2761472519       36.1098243698        4.4573149199  MEMB      67              0.0000000000
      7100        67  POPC      C311           30.0172201205       36.5681994334        3.0916500929  MEMB      67              0.0000000000
      7101        67  POPC      H11X           30.2082787441       35.4738739214        3.0752341004  MEMB      67              0.0000000000
      7102        67  POPC      H11Y           31.0166958401       37.0391854993        3.2080167848  MEMB      67              0.0000000000
      7103        67  POPC      C312           29.3928890552       37.0230728796        1.7607538116  MEMB      67              0.0000000000
      7104        67  POPC      H12X           28.4851901491       36.4136098009        1.5633761215  MEMB      67              0.0000000000
      7105        67  POPC      H12Y           30.0814022041       36.7988684509        0.9181377279  MEMB      67              0.0000000000
      7106        67  POPC      C313           29.0771250302       38.5376152215        1.8261228490  MEMB      67              0.0000000000
      7107        67  POPC      H13X           29.8864620366       39.0917701498        2.3478579096  MEMB      67              0.0000000000
      7108        67  POPC      H13Y           28.0991940803       38.6588116691        2.3392344326  MEMB      67              0.0000000000
      7109        67  POPC      C314           28.8436586252       39.2017531806        0.4458276326  MEMB      67              0.0000000000
      7110        67  POPC      H14X           29.8212236892       39.3605003306       -0.0576468574  MEMB      67              0.0000000000
      7111        67  POPC      H14Y           28.3564945398       40.1856492740        0.6159480296  MEMB      67              0.0000000000
      7112        67  POPC      C315           27.8261931538       38.5053202953       -0.4616183236  MEMB      67              0.0000000000
      7113        67  POPC      H15X           28.4306953544       37.6462926136       -0.8235149198  MEMB      67              0.0000000000
      7114        67  POPC      H15Y           27.5263915083       39.1226725652       -1.3352971466  MEMB      67              0.0000000000
      7115        67  POPC      C316           26.5526123408       38.1747929025        0.2037309370  MEMB      67              0.0000000000
      7116        67  POPC      H16X           25.9013891678       37.8796251233       -0.6466240234  MEMB      67              0.0000000000
      7117        67  POPC      H16Y           26.0736362751       39.0864535387        0.6205977589  MEMB      67              0.0000000000
      7118        67  POPC      H16Z           26.5837426482       37.4148048105        1.0135273406  MEMB      67              0.0000000000
      7119        68  POPC      N               1.6974104470       46.1220899341       18.7185603060  MEMB      68              0.0000000000
      7120        68  POPC      C12             1.4023702949       47.3752043575       17.8282664112  MEMB      68              0.0000000000
      7121        68  POPC      H12A            1.0815860691       46.9913564344       16.8711048529  MEMB      68              0.0000000000
      7122        68  POPC      H12B            2.2730229772       47.9546027336       17.5587084689  MEMB      68              0.0000000000
      7123        68  POPC      C13             0.3464038735       45.4268708798       18.9807013876  MEMB      68              0.0000000000
      7124        68  POPC      H13A           -0.2655847660       46.1744130624       19.4634548568  MEMB      68              0.0000000000
      7125        68  POPC      H13B           -0.1282471421       45.2664409287       18.0239524259  MEMB      68              0.0000000000
      7126        68  POPC      H13C            0.4417184377       44.5430351214       19.5940115496  MEMB      68              0.0000000000
      7127        68  POPC      C14             2.6008325627       45.1661533812       18.0155636569  MEMB      68              0.0000000000
      7128        68  POPC      H14A            3.4061586837       45.7422300357       17.5843033356  MEMB      68              0.0000000000
      7129        68  POPC      H14B            2.8500401729       44.4117496315       18.7471172382  MEMB      68              0.0000000000
      7130        68  POPC      H14C            2.0489141960       44.6424562409       17.2490602134  MEMB      68              0.0000000000
      7131        68  POPC      C15             2.3310491062       46.5378011566       19.9528219617  MEMB      68              0.0000000000
      7132        68  POPC      H15A            3.2334073883       47.0291939529       19.6201319119  MEMB      68              0.0000000000
      7133        68  POPC      H15B            2.5493950711       45.7458072510       20.6538718220  MEMB      68              0.0000000000
      7134        68  POPC      H15C            1.6156954544       47.2277712829       20.3754450581  MEMB      68              0.0000000000
      7135        68  POPC      C11             0.3305622618       48.5034182420       18.2657583918  MEMB      68              0.0000000000
      7136        68  POPC      H11A           -0.6363972718       48.0080385618       18.4979417829  MEMB      68              0.0000000000
      7137        68  POPC      H11B            0.3333986066       49.1601302509       17.3696321201  MEMB      68              0.0000000000
      7138        68  POPC      P               1.2539223175       50.7050224872       19.4585331860  MEMB      68              0.0000000000
      7139        68  POPC      O13             2.5124703272       50.7299955043       18.7121320952  MEMB      68              0.0000000000
      7140        68  POPC      O14             1.1920996518       51.1506985336       20.8313597869  MEMB      68              0.0000000000
      7141        68  POPC      O12             0.9058499413       49.1939023936       19.4693027313  MEMB      68              0.0000000000
      7142        68  POPC      O11             0.0298011308       51.4985847285       18.7670000846  MEMB      68              0.0000000000
      7143        68  POPC      C1             -1.2396245416       51.4270320062       19.2835530092  MEMB      68              0.0000000000
      7144        68  POPC      HA             -1.1755332974       51.9114009511       20.2813505968  MEMB      68              0.0000000000
      7145        68  POPC      HB             -1.4871000261       50.3693213207       19.5166296974  MEMB      68              0.0000000000
      7146        68  POPC      C2             -2.2232747114       52.1515359269       18.3639761248  MEMB      68              0.0000000000
      7147        68  POPC      HS             -3.1303711363       52.2164905928       19.0021593993  MEMB      68              0.0000000000
      7148        68  POPC      O21            -2.3717901641       51.3767639788       17.1231685356  MEMB      68              0.0000000000
      7149        68  POPC      C21            -3.0679587673       50.2070228081       17.2719809004  MEMB      68              0.0000000000
      7150        68  POPC      O22            -3.4645629142       49.6885221851       18.3018444732  MEMB      68              0.0000000000
      7151        68  POPC      C22            -3.5315129028       49.7782385142       15.8890761582  MEMB      68              0.0000000000
      7152        68  POPC      H2R            -3.5039045370       50.6080207900       15.1508210980  MEMB      68              0.0000000000
      7153        68  POPC      H2S            -4.5539559070       49.3685828460       16.0343807404  MEMB      68              0.0000000000
      7154        68  POPC      C3             -1.6958835947       53.5867266596       18.1168082882  MEMB      68              0.0000000000
      7155        68  POPC      HX             -1.4309069538       54.0071267056       19.1104742587  MEMB      68              0.0000000000
      7156        68  POPC      HY             -2.6145077254       54.0818553178       17.7356276755  MEMB      68              0.0000000000
      7157        68  POPC      O31            -0.4269387469       53.7069979184       17.3096742755  MEMB      68              0.0000000000
      7158        68  POPC      C31            -0.8215998116       53.8074190967       16.0068665849  MEMB      68              0.0000000000
      7159        68  POPC      O32            -1.9699078215       53.6605589437       15.6047809363  MEMB      68              0.0000000000
      7160        68  POPC      C32             0.4624085610       54.0481166952       15.0675584373  MEMB      68              0.0000000000
      7161        68  POPC      H2X             1.0135295188       54.9824453798       15.3075929755  MEMB      68              0.0000000000
      7162        68  POPC      H2Y             0.2002625311       54.0922280737       13.9888305914  MEMB      68              0.0000000000
      7163        68  POPC      C23            -2.6269364587       48.6416424175       15.4440529409  MEMB      68              0.0000000000
      7164        68  POPC      H3R            -2.6634738307       47.7719771749       16.1344647977  MEMB      68              0.0000000000
      7165        68  POPC      H3S            -1.5582378093       48.9308052077       15.3513735650  MEMB      68              0.0000000000
      7166        68  POPC      C24            -2.9009067680       48.1346937733       13.9882397507  MEMB      68              0.0000000000
      7167        68  POPC      H4R            -3.9435474015       47.7513491379       14.0046328201  MEMB      68              0.0000000000
      7168        68  POPC      H4S            -2.1959583611       47.3540619447       13.6304930321  MEMB      68              0.0000000000
      7169        68  POPC      C25            -2.9566813256       49.2052368097       12.8779905943  MEMB      68              0.0000000000
      7170        68  POPC      H5R            -2.1269058573       49.9343040990       12.9973821906  MEMB      68              0.0000000000
      7171        68  POPC      H5S            -3.9688358113       49.6615552411       12.9184622052  MEMB      68              0.0000000000
      7172        68  POPC      C26            -2.8153983684       48.6595451859       11.4639734449  MEMB      68              0.0000000000
      7173        68  POPC      H6R            -3.3337276240       47.6793590855       11.5339102809  MEMB      68              0.0000000000
      7174        68  POPC      H6S            -1.7513061500       48.4249694912       11.2471717206  MEMB      68              0.0000000000
      7175        68  POPC      C27            -3.4751835713       49.6166729390       10.4550584214  MEMB      68              0.0000000000
      7176        68  POPC      H7R            -2.9778517689       50.6093191933       10.4146163081  MEMB      68              0.0000000000
      7177        68  POPC      H7S            -4.4273778068       49.9434736121       10.9250034492  MEMB      68              0.0000000000
      7178        68  POPC      C28            -3.7501822106       49.0359589803        9.1338240160  MEMB      68              0.0000000000
      7179        68  POPC      H8R            -4.5824449542       49.6398104066        8.7130836108  MEMB      68              0.0000000000
      7180        68  POPC      H8S            -4.2679041267       48.0577835954        9.2310748499  MEMB      68              0.0000000000
      7181        68  POPC      C29            -2.6216520959       48.9058554301        8.1496970610  MEMB      68              0.0000000000
      7182        68  POPC      H91            -2.3428525333       49.7630162201        7.5191846292  MEMB      68              0.0000000000
      7183        68  POPC      C210           -1.9014043765       47.8138172509        7.9229494822  MEMB      68              0.0000000000
      7184        68  POPC      H101           -1.1393639536       47.9841036852        7.1481608854  MEMB      68              0.0000000000
      7185        68  POPC      C211           -1.9195779467       46.4417783529        8.5056772001  MEMB      68              0.0000000000
      7186        68  POPC      H11R           -2.6031984739       45.7793352593        7.9328303924  MEMB      68              0.0000000000
      7187        68  POPC      H11S           -2.2136008231       46.3037893306        9.5681411073  MEMB      68              0.0000000000
      7188        68  POPC      C212           -0.5588637770       45.6622894995        8.3943096031  MEMB      68              0.0000000000
      7189        68  POPC      H12R           -0.8145938581       44.6452597812        8.7611521820  MEMB      68              0.0000000000
      7190        68  POPC      H12S            0.1444126145       46.2219129693        9.0474130865  MEMB      68              0.0000000000
      7191        68  POPC      C213            0.0145101611       45.4553156267        7.0233161166  MEMB      68              0.0000000000
      7192        68  POPC      H13R            0.7757293380       44.6528699444        7.1279475242  MEMB      68              0.0000000000
      7193        68  POPC      H13S            0.4850361136       46.4155337513        6.7218081901  MEMB      68              0.0000000000
      7194        68  POPC      C214           -1.0000783756       44.9793500331        5.8807230297  MEMB      68              0.0000000000
      7195        68  POPC      H14R           -1.9282585368       45.5713873039        6.0300356149  MEMB      68              0.0000000000
      7196        68  POPC      H14S           -1.3944325702       43.9648447889        6.1034009383  MEMB      68              0.0000000000
      7197        68  POPC      C215           -0.5426332553       45.4665635566        4.5031710495  MEMB      68              0.0000000000
      7198        68  POPC      H15R            0.1675337273       44.7883535051        3.9835414659  MEMB      68              0.0000000000
      7199        68  POPC      H15S            0.0542005275       46.3966995030        4.6170000192  MEMB      68              0.0000000000
      7200        68  POPC      C216           -1.7694488886       45.6511060326        3.5366577296  MEMB      68              0.0000000000
      7201        68  POPC      H16R           -2.6446322326       45.9486373643        4.1529775608  MEMB      68              0.0000000000
      7202        68  POPC      H16S           -1.9420370055       44.7302918789        2.9394673679  MEMB      68              0.0000000000
      7203        68  POPC      C217           -1.6710309508       46.8627384696        2.5335338696  MEMB      68              0.0000000000
      7204        68  POPC      H17R           -1.5196277759       47.6930277042        3.2560421100  MEMB      68              0.0000000000
      7205        68  POPC      H17S           -2.6207559293       47.0592687570        1.9915750919  MEMB      68              0.0000000000
      7206        68  POPC      C218           -0.5328539761       46.6473355587        1.4936104502  MEMB      68              0.0000000000
      7207        68  POPC      H18R           -0.6221027123       47.4754230014        0.7583375707  MEMB      68              0.0000000000
      7208        68  POPC      H18S           -0.6209407642       45.6089463188        1.1084993132  MEMB      68              0.0000000000
      7209        68  POPC      H18T            0.4631588140       46.5999353171        1.9835410338  MEMB      68              0.0000000000
      7210        68  POPC      C33             1.3615658410       52.8363696732       15.2935777890  MEMB      68              0.0000000000
      7211        68  POPC      H3X             1.7885572072       52.9517960853       16.3127324466  MEMB      68              0.0000000000
      7212        68  POPC      H3Y             2.3073312426       52.9644988022       14.7248670671  MEMB      68              0.0000000000
      7213        68  POPC      C34             0.6833053019       51.5258901834       14.8806040981  MEMB      68              0.0000000000
      7214        68  POPC      H4X             0.3137933319       51.5467339653       13.8330604888  MEMB      68              0.0000000000
      7215        68  POPC      H4Y            -0.1283432404       51.2270502676       15.5779148739  MEMB      68              0.0000000000
      7216        68  POPC      C35             1.7834878774       50.3460978032       14.9749646159  MEMB      68              0.0000000000
      7217        68  POPC      H5X             1.7487370338       50.0707892240       16.0507518956  MEMB      68              0.0000000000
      7218        68  POPC      H5Y             2.7646679820       50.8085618564       14.7346863900  MEMB      68              0.0000000000
      7219        68  POPC      C36             1.4543674953       49.2508802536       13.9410092726  MEMB      68              0.0000000000
      7220        68  POPC      H6X             0.3678289791       49.0341629389       14.0234012637  MEMB      68              0.0000000000
      7221        68  POPC      H6Y             1.9521926998       48.3586488445       14.3773744733  MEMB      68              0.0000000000
      7222        68  POPC      C37             2.0159747600       49.5155865333       12.5797102915  MEMB      68              0.0000000000
      7223        68  POPC      H7X             3.0945343516       49.7792825053       12.6183721653  MEMB      68              0.0000000000
      7224        68  POPC      H7Y             1.4818422222       50.3894408869       12.1491268177  MEMB      68              0.0000000000
      7225        68  POPC      C38             1.7027554887       48.3340504466       11.5594123589  MEMB      68              0.0000000000
      7226        68  POPC      H8X             0.6381209609       48.0425870386       11.6856013942  MEMB      68              0.0000000000
      7227        68  POPC      H8Y             2.2288288854       47.4532893929       11.9858244339  MEMB      68              0.0000000000
      7228        68  POPC      C39             1.9884946210       48.6345096252       10.0302913052  MEMB      68              0.0000000000
      7229        68  POPC      H9X             1.9225189251       47.6683341801        9.4857974685  MEMB      68              0.0000000000
      7230        68  POPC      H9Y             2.9794277924       49.0732721876        9.7856290063  MEMB      68              0.0000000000
      7231        68  POPC      C310            1.0455782738       49.6702925460        9.4193401840  MEMB      68              0.0000000000
      7232        68  POPC      H10X            1.1585179607       50.5979149001       10.0202415202  MEMB      68              0.0000000000
      7233        68  POPC      H10Y            0.0483375044       49.2323942428        9.6386047783  MEMB      68              0.0000000000
      7234        68  POPC      C311            1.2335969797       50.0474986557        7.9830640333  MEMB      68              0.0000000000
      7235        68  POPC      H11X            1.0538894579       49.2102456411        7.2752272784  MEMB      68              0.0000000000
      7236        68  POPC      H11Y            2.2882925187       50.3390688971        7.7909055361  MEMB      68              0.0000000000
      7237        68  POPC      C312            0.2200313042       51.2181676095        7.5960584907  MEMB      68              0.0000000000
      7238        68  POPC      H12X            0.5318735990       52.1474772389        8.1189908120  MEMB      68              0.0000000000
      7239        68  POPC      H12Y           -0.8321906051       50.9929660084        7.8725264391  MEMB      68              0.0000000000
      7240        68  POPC      C313            0.2736702199       51.4605738106        6.1022027780  MEMB      68              0.0000000000
      7241        68  POPC      H13X            1.3222823533       51.7143939593        5.8370443639  MEMB      68              0.0000000000
      7242        68  POPC      H13Y           -0.5152622135       52.1800295265        5.7951362810  MEMB      68              0.0000000000
      7243        68  POPC      C314           -0.3076323713       50.2387892311        5.2399965184  MEMB      68              0.0000000000
      7244        68  POPC      H14X           -1.2353639848       49.7938438252        5.6591131134  MEMB      68              0.0000000000
      7245        68  POPC      H14Y            0.5099592053       49.4865975331        5.2484932956  MEMB      68              0.0000000000
      7246        68  POPC      C315           -0.5526192526       50.5955847190        3.7365415127  MEMB      68              0.0000000000
      7247        68  POPC      H15X           -0.4208608274       49.6237471369        3.2145337429  MEMB      68              0.0000000000
      7248        68  POPC      H15Y            0.2414332427       51.2265767916        3.2830543244  MEMB      68              0.0000000000
      7249        68  POPC      C316           -2.0485250086       51.2058701287        3.4974764947  MEMB      68              0.0000000000
      7250        68  POPC      H16X           -2.1664254886       52.1573916226        4.0587497036  MEMB      68              0.0000000000
      7251        68  POPC      H16Y           -2.8116042139       50.4895783016        3.8702462256  MEMB      68              0.0000000000
      7252        68  POPC      H16Z           -2.2777880354       51.2792673633        2.4128703832  MEMB      68              0.0000000000
      7253        69  POPC      N             -28.4615121687      -38.4076088143       20.1651505089  MEMB      69              0.0000000000
      7254        69  POPC      C12           -27.0915903130      -37.7209170823       20.1590606571  MEMB      69              0.0000000000
      7255        69  POPC      H12A          -26.4675410358      -38.2247552629       19.4357974935  MEMB      69              0.0000000000
      7256        69  POPC      H12B          -26.6141793588      -37.7540953292       21.1272435596  MEMB      69              0.0000000000
      7257        69  POPC      C13           -29.0008186546      -38.5791498736       18.7637103685  MEMB      69              0.0000000000
      7258        69  POPC      H13A          -28.4110128302      -39.1804895519       18.0877520681  MEMB      69              0.0000000000
      7259        69  POPC      H13B          -30.0012989495      -38.9434310557       18.9446480523  MEMB      69              0.0000000000
      7260        69  POPC      H13C          -29.1898084096      -37.5845529912       18.3875986824  MEMB      69              0.0000000000
      7261        69  POPC      C14           -28.2914205905      -39.7443058911       20.7955079399  MEMB      69              0.0000000000
      7262        69  POPC      H14A          -29.1859671788      -40.3250757392       20.6255300598  MEMB      69              0.0000000000
      7263        69  POPC      H14B          -27.5926440448      -40.3564043787       20.2446479198  MEMB      69              0.0000000000
      7264        69  POPC      H14C          -28.0667583430      -39.6342774141       21.8461367162  MEMB      69              0.0000000000
      7265        69  POPC      C15           -29.3297598263      -37.6855829489       21.0372144807  MEMB      69              0.0000000000
      7266        69  POPC      H15A          -30.3461956122      -38.0410903650       20.9543124038  MEMB      69              0.0000000000
      7267        69  POPC      H15B          -29.5493924118      -36.6586338303       20.7851488690  MEMB      69              0.0000000000
      7268        69  POPC      H15C          -28.9859965871      -37.8254595646       22.0514440123  MEMB      69              0.0000000000
      7269        69  POPC      C11           -26.9625344504      -36.2686133744       19.8678297516  MEMB      69              0.0000000000
      7270        69  POPC      H11A          -25.8798273759      -36.0362378806       19.9576512457  MEMB      69              0.0000000000
      7271        69  POPC      H11B          -27.3216939178      -35.5575722165       20.6422624465  MEMB      69              0.0000000000
      7272        69  POPC      P             -26.8293877310      -34.8544589925       17.6289796968  MEMB      69              0.0000000000
      7273        69  POPC      O13           -26.5561395203      -35.3919712763       16.2901659220  MEMB      69              0.0000000000
      7274        69  POPC      O14           -25.5805113158      -34.2464648323       18.2339479577  MEMB      69              0.0000000000
      7275        69  POPC      O12           -27.4033054480      -35.9047086142       18.5236277138  MEMB      69              0.0000000000
      7276        69  POPC      O11           -28.0549632857      -33.7893213217       17.5348050088  MEMB      69              0.0000000000
      7277        69  POPC      C1            -28.5329077072      -33.0495846507       18.6281643905  MEMB      69              0.0000000000
      7278        69  POPC      HA            -27.8424735078      -32.2226063775       18.8996942183  MEMB      69              0.0000000000
      7279        69  POPC      HB            -28.6442737502      -33.6401700801       19.5625772859  MEMB      69              0.0000000000
      7280        69  POPC      C2            -29.9415275374      -32.3562678861       18.3832518626  MEMB      69              0.0000000000
      7281        69  POPC      HS            -30.1992084469      -31.7810041545       19.2981250478  MEMB      69              0.0000000000
      7282        69  POPC      O21           -30.9613335039      -33.3449470685       18.0752738620  MEMB      69              0.0000000000
      7283        69  POPC      C21           -31.3966427531      -34.0662166648       19.0772180727  MEMB      69              0.0000000000
      7284        69  POPC      O22           -31.1701662254      -33.8918280569       20.2689960992  MEMB      69              0.0000000000
      7285        69  POPC      C22           -31.9924825529      -35.3360517749       18.5086103691  MEMB      69              0.0000000000
      7286        69  POPC      H2R           -32.9097105255      -35.1096090541       17.9240272766  MEMB      69              0.0000000000
      7287        69  POPC      H2S           -32.2010435695      -36.0512243960       19.3328381492  MEMB      69              0.0000000000
      7288        69  POPC      C3            -29.7597047412      -31.3553345359       17.2501879963  MEMB      69              0.0000000000
      7289        69  POPC      HX            -29.1542583948      -30.4792185084       17.5666942448  MEMB      69              0.0000000000
      7290        69  POPC      HY            -30.7289288062      -30.8434238094       17.0688778682  MEMB      69              0.0000000000
      7291        69  POPC      O31           -29.5447314095      -31.8977940608       15.9281358979  MEMB      69              0.0000000000
      7292        69  POPC      C31           -28.4008505807      -31.5053217155       15.3333684624  MEMB      69              0.0000000000
      7293        69  POPC      O32           -27.6316908258      -30.6623777618       15.6957549454  MEMB      69              0.0000000000
      7294        69  POPC      C32           -28.1833705104      -32.3830993752       14.1129262318  MEMB      69              0.0000000000
      7295        69  POPC      H2X           -28.6712611468      -31.8832052796       13.2489878990  MEMB      69              0.0000000000
      7296        69  POPC      H2Y           -28.5399379481      -33.3973911659       14.3929138534  MEMB      69              0.0000000000
      7297        69  POPC      C23           -30.9656660798      -36.0424465156       17.5533716745  MEMB      69              0.0000000000
      7298        69  POPC      H3R           -31.1496991264      -37.1316677140       17.6719042798  MEMB      69              0.0000000000
      7299        69  POPC      H3S           -29.9693830598      -35.8207069269       17.9922026339  MEMB      69              0.0000000000
      7300        69  POPC      C24           -31.1567699681      -35.6789018802       16.0961542447  MEMB      69              0.0000000000
      7301        69  POPC      H4R           -30.2777957836      -35.8726105121       15.4448462271  MEMB      69              0.0000000000
      7302        69  POPC      H4S           -31.3798599461      -34.5914392511       16.0516950919  MEMB      69              0.0000000000
      7303        69  POPC      C25           -32.3719977243      -36.5298246121       15.5375002830  MEMB      69              0.0000000000
      7304        69  POPC      H5R           -33.0822130995      -35.7005021905       15.3322216062  MEMB      69              0.0000000000
      7305        69  POPC      H5S           -32.8217016131      -37.1241711941       16.3614175115  MEMB      69              0.0000000000
      7306        69  POPC      C26           -32.2839461953      -37.2453053589       14.2277373645  MEMB      69              0.0000000000
      7307        69  POPC      H6R           -33.0401971964      -38.0461223256       14.3729887540  MEMB      69              0.0000000000
      7308        69  POPC      H6S           -31.2619851621      -37.6695159264       14.1279277522  MEMB      69              0.0000000000
      7309        69  POPC      C27           -32.6390655167      -36.4483353187       13.0200238752  MEMB      69              0.0000000000
      7310        69  POPC      H7R           -33.5859161400      -35.8729216604       13.1018428294  MEMB      69              0.0000000000
      7311        69  POPC      H7S           -32.7638600094      -37.2517626376       12.2628895023  MEMB      69              0.0000000000
      7312        69  POPC      C28           -31.4771237653      -35.6190318913       12.6138348632  MEMB      69              0.0000000000
      7313        69  POPC      H8R           -31.0220531705      -35.0633075653       13.4614208632  MEMB      69              0.0000000000
      7314        69  POPC      H8S           -31.8760705299      -34.9049319636       11.8620213215  MEMB      69              0.0000000000
      7315        69  POPC      C29           -30.2932054559      -36.3668285653       11.9330847380  MEMB      69              0.0000000000
      7316        69  POPC      H91           -29.6922984373      -36.9004513347       12.6841889097  MEMB      69              0.0000000000
      7317        69  POPC      C210          -29.9226847682      -36.2651350286       10.6448668781  MEMB      69              0.0000000000
      7318        69  POPC      H101          -29.0349884890      -36.8447526761       10.3515431752  MEMB      69              0.0000000000
      7319        69  POPC      C211          -30.4948262549      -35.4504365680        9.5223572589  MEMB      69              0.0000000000
      7320        69  POPC      H11R          -29.7876349902      -34.8687503500        8.8931974045  MEMB      69              0.0000000000
      7321        69  POPC      H11S          -31.3299645448      -34.7907943736        9.8413202825  MEMB      69              0.0000000000
      7322        69  POPC      C212          -31.2678937342      -36.3306413493        8.4425656468  MEMB      69              0.0000000000
      7323        69  POPC      H12R          -32.1483498793      -36.7604593614        8.9663733666  MEMB      69              0.0000000000
      7324        69  POPC      H12S          -30.5702210603      -37.1420486334        8.1439154344  MEMB      69              0.0000000000
      7325        69  POPC      C213          -31.6312945558      -35.5874551649        7.1240202262  MEMB      69              0.0000000000
      7326        69  POPC      H13R          -32.2583308372      -34.6854793843        7.2901115962  MEMB      69              0.0000000000
      7327        69  POPC      H13S          -32.2593803871      -36.3099351835        6.5602368684  MEMB      69              0.0000000000
      7328        69  POPC      C214          -30.4162849095      -35.1400712612        6.3197923767  MEMB      69              0.0000000000
      7329        69  POPC      H14R          -29.6931959051      -35.9628453717        6.1340341132  MEMB      69              0.0000000000
      7330        69  POPC      H14S          -29.9166333351      -34.3622129414        6.9359136622  MEMB      69              0.0000000000
      7331        69  POPC      C215          -30.8365409546      -34.4641591835        4.9804281731  MEMB      69              0.0000000000
      7332        69  POPC      H15R          -31.9264500791      -34.2558251253        4.9255067429  MEMB      69              0.0000000000
      7333        69  POPC      H15S          -30.7116639148      -35.2382837173        4.1933718009  MEMB      69              0.0000000000
      7334        69  POPC      C216          -30.0995192567      -33.1349427839        4.6379880069  MEMB      69              0.0000000000
      7335        69  POPC      H16R          -29.8773209004      -32.5650975115        5.5654709175  MEMB      69              0.0000000000
      7336        69  POPC      H16S          -30.7814466514      -32.5782406963        3.9602129716  MEMB      69              0.0000000000
      7337        69  POPC      C217          -28.8145117175      -33.5029656654        3.9330377762  MEMB      69              0.0000000000
      7338        69  POPC      H17R          -28.4782059338      -34.4737984518        4.3557703075  MEMB      69              0.0000000000
      7339        69  POPC      H17S          -28.0116121403      -32.7541047361        4.1029819505  MEMB      69              0.0000000000
      7340        69  POPC      C218          -29.0447492975      -33.6530559669        2.4292635560  MEMB      69              0.0000000000
      7341        69  POPC      H18R          -29.9616258396      -34.2371209408        2.2000778619  MEMB      69              0.0000000000
      7342        69  POPC      H18S          -28.2354315725      -34.2907865743        2.0137809477  MEMB      69              0.0000000000
      7343        69  POPC      H18T          -29.2435402124      -32.7141619815        1.8695471477  MEMB      69              0.0000000000
      7344        69  POPC      C33           -26.6912711267      -32.5461248035       13.8008010169  MEMB      69              0.0000000000
      7345        69  POPC      H3X           -26.1151207712      -32.7994108590       14.7163436353  MEMB      69              0.0000000000
      7346        69  POPC      H3Y           -26.4750197207      -31.5403135538       13.3813960808  MEMB      69              0.0000000000
      7347        69  POPC      C34           -26.2232688906      -33.3854072257       12.6037618833  MEMB      69              0.0000000000
      7348        69  POPC      H4X           -26.6274812556      -34.4185156515       12.6639325549  MEMB      69              0.0000000000
      7349        69  POPC      H4Y           -25.1328101826      -33.5662031799       12.4918095906  MEMB      69              0.0000000000
      7350        69  POPC      C35           -26.7796547062      -32.9383115616       11.2611365480  MEMB      69              0.0000000000
      7351        69  POPC      H5X           -26.2747350670      -31.9951717860       10.9613624183  MEMB      69              0.0000000000
      7352        69  POPC      H5Y           -27.8661959823      -32.7285127333       11.3597948898  MEMB      69              0.0000000000
      7353        69  POPC      C36           -26.5817451757      -33.9235499890       10.0864728181  MEMB      69              0.0000000000
      7354        69  POPC      H6X           -27.2953229800      -34.7409089061       10.3253288943  MEMB      69              0.0000000000
      7355        69  POPC      H6Y           -25.5535667892      -34.3413229133       10.0351299334  MEMB      69              0.0000000000
      7356        69  POPC      C37           -27.0014238756      -33.3965505044        8.7237026647  MEMB      69              0.0000000000
      7357        69  POPC      H7X           -26.4075049059      -32.4630791388        8.6226480113  MEMB      69              0.0000000000
      7358        69  POPC      H7Y           -28.0483590819      -33.0269712598        8.6829696962  MEMB      69              0.0000000000
      7359        69  POPC      C38           -26.8736253484      -34.3034215289        7.4013759955  MEMB      69              0.0000000000
      7360        69  POPC      H8X           -27.2954838335      -33.7448230162        6.5386337523  MEMB      69              0.0000000000
      7361        69  POPC      H8Y           -27.4387591853      -35.2588359552        7.4475041814  MEMB      69              0.0000000000
      7362        69  POPC      C39           -25.4560009908      -34.7666674940        6.9623549248  MEMB      69              0.0000000000
      7363        69  POPC      H9X           -25.0055878356      -35.4233830808        7.7370633741  MEMB      69              0.0000000000
      7364        69  POPC      H9Y           -24.8926189279      -33.8101602476        6.9174554887  MEMB      69              0.0000000000
      7365        69  POPC      C310          -25.3248761393      -35.4540926597        5.6497353281  MEMB      69              0.0000000000
      7366        69  POPC      H10X          -24.2557121542      -35.6923433643        5.4641398430  MEMB      69              0.0000000000
      7367        69  POPC      H10Y          -25.7259349837      -34.8145296692        4.8346077851  MEMB      69              0.0000000000
      7368        69  POPC      C311          -26.1370112971      -36.7594705935        5.4359393245  MEMB      69              0.0000000000
      7369        69  POPC      H11X          -27.1716042749      -36.4169216447        5.6518060115  MEMB      69              0.0000000000
      7370        69  POPC      H11Y          -25.8900498124      -37.4569462524        6.2647082892  MEMB      69              0.0000000000
      7371        69  POPC      C312          -26.0347079538      -37.4714183979        4.1516392432  MEMB      69              0.0000000000
      7372        69  POPC      H12X          -26.8930441957      -38.1544238192        3.9753346117  MEMB      69              0.0000000000
      7373        69  POPC      H12Y          -25.0842218870      -38.0424559986        4.0822598324  MEMB      69              0.0000000000
      7374        69  POPC      C313          -25.9911702483      -36.4897696780        2.9763363948  MEMB      69              0.0000000000
      7375        69  POPC      H13X          -24.9907349642      -36.0067504613        2.9643869814  MEMB      69              0.0000000000
      7376        69  POPC      H13Y          -26.8350746969      -35.7677341501        2.9478554724  MEMB      69              0.0000000000
      7377        69  POPC      C314          -26.2042023180      -37.1546362354        1.6052239370  MEMB      69              0.0000000000
      7378        69  POPC      H14X          -27.2299259613      -37.5681686100        1.4993832708  MEMB      69              0.0000000000
      7379        69  POPC      H14Y          -25.4527958490      -37.9648823613        1.4902864933  MEMB      69              0.0000000000
      7380        69  POPC      C315          -25.9920151494      -36.2951631437        0.3573504912  MEMB      69              0.0000000000
      7381        69  POPC      H15X          -26.8381533057      -35.5820388263        0.4564721462  MEMB      69              0.0000000000
      7382        69  POPC      H15Y          -26.1043428007      -36.8283797218       -0.6108350132  MEMB      69              0.0000000000
      7383        69  POPC      C316          -24.6592432689      -35.5476581432        0.2559943575  MEMB      69              0.0000000000
      7384        69  POPC      H16X          -23.8073499945      -36.2606791722        0.2701383640  MEMB      69              0.0000000000
      7385        69  POPC      H16Y          -24.4743371268      -34.8543559615        1.1042059720  MEMB      69              0.0000000000
      7386        69  POPC      H16Z          -24.5794314392      -34.9516004513       -0.6781710834  MEMB      69              0.0000000000
      7387        70  POPC      N              37.3816576878      -30.5048784537       19.0888565888  MEMB      70              0.0000000000
      7388        70  POPC      C12            37.0980437104      -29.0208455102       18.9856599231  MEMB      70              0.0000000000
      7389        70  POPC      H12A           37.7918846470      -28.5840568223       18.2826661087  MEMB      70              0.0000000000
      7390        70  POPC      H12B           37.1499673571      -28.6867665503       20.0113768655  MEMB      70              0.0000000000
      7391        70  POPC      C13            37.2159896002      -31.1258214174       17.7883544254  MEMB      70              0.0000000000
      7392        70  POPC      H13A           38.0669365702      -30.9420421758       17.1492030898  MEMB      70              0.0000000000
      7393        70  POPC      H13B           37.0905642739      -32.1957114754       17.8658386412  MEMB      70              0.0000000000
      7394        70  POPC      H13C           36.4053943534      -30.6356075157       17.2696773363  MEMB      70              0.0000000000
      7395        70  POPC      C14            38.7829431000      -30.6204961740       19.5005524241  MEMB      70              0.0000000000
      7396        70  POPC      H14A           39.4916916362      -30.2354007540       18.7823762287  MEMB      70              0.0000000000
      7397        70  POPC      H14B           38.8511553578      -30.1875182182       20.4876071544  MEMB      70              0.0000000000
      7398        70  POPC      H14C           38.9913079490      -31.6778167690       19.5716672018  MEMB      70              0.0000000000
      7399        70  POPC      C15            36.3195423000      -31.1500972325       20.0542111584  MEMB      70              0.0000000000
      7400        70  POPC      H15A           36.5443057400      -30.5700122808       20.9370377453  MEMB      70              0.0000000000
      7401        70  POPC      H15B           36.5006339820      -32.1613898331       20.3872170855  MEMB      70              0.0000000000
      7402        70  POPC      H15C           35.3309758766      -30.9269049611       19.6809528210  MEMB      70              0.0000000000
      7403        70  POPC      C11            35.7062205798      -28.4986359033       18.4239106528  MEMB      70              0.0000000000
      7404        70  POPC      H11A           35.4727964801      -29.1408500175       17.5478996636  MEMB      70              0.0000000000
      7405        70  POPC      H11B           35.9001556768      -27.4551364924       18.0955522908  MEMB      70              0.0000000000
      7406        70  POPC      P              33.1632326792      -28.6178958767       19.0458587951  MEMB      70              0.0000000000
      7407        70  POPC      O13            32.7221242747      -27.2793227644       18.5997573326  MEMB      70              0.0000000000
      7408        70  POPC      O14            32.3759549990      -29.2081686193       20.2033894750  MEMB      70              0.0000000000
      7409        70  POPC      O12            34.7031262333      -28.5540232759       19.5055596015  MEMB      70              0.0000000000
      7410        70  POPC      O11            33.2339199393      -29.6631913707       17.8038896230  MEMB      70              0.0000000000
      7411        70  POPC      C1             32.4749620258      -29.4330739957       16.6529630152  MEMB      70              0.0000000000
      7412        70  POPC      HA             32.8259524344      -28.5842379433       16.0279798146  MEMB      70              0.0000000000
      7413        70  POPC      HB             31.4514766083      -29.1750917437       16.9997246716  MEMB      70              0.0000000000
      7414        70  POPC      C2             32.5463104303      -30.7298469764       15.7880998998  MEMB      70              0.0000000000
      7415        70  POPC      HS             32.0724656520      -31.5669094085       16.3440844558  MEMB      70              0.0000000000
      7416        70  POPC      O21            33.9569381211      -30.9916453003       15.6568317980  MEMB      70              0.0000000000
      7417        70  POPC      C21            34.2941956464      -32.1888641646       15.1958833570  MEMB      70              0.0000000000
      7418        70  POPC      O22            33.4838735048      -33.0676314346       15.0394120335  MEMB      70              0.0000000000
      7419        70  POPC      C22            35.8018327274      -32.1339497374       14.8527831383  MEMB      70              0.0000000000
      7420        70  POPC      H2R            36.3364206984      -32.9539385320       15.3782872704  MEMB      70              0.0000000000
      7421        70  POPC      H2S            36.2107121828      -31.1364655859       15.1214164529  MEMB      70              0.0000000000
      7422        70  POPC      C3             31.8160471076      -30.5679446263       14.4298938897  MEMB      70              0.0000000000
      7423        70  POPC      HX             30.7799171211      -30.2294539942       14.6447887366  MEMB      70              0.0000000000
      7424        70  POPC      HY             31.7540362246      -31.6184234326       14.0735659090  MEMB      70              0.0000000000
      7425        70  POPC      O31            32.5985674731      -29.8237961105       13.4519709153  MEMB      70              0.0000000000
      7426        70  POPC      C31            31.9771251323      -29.0399966038       12.5781490554  MEMB      70              0.0000000000
      7427        70  POPC      O32            30.7374545442      -28.9299352558       12.4470002314  MEMB      70              0.0000000000
      7428        70  POPC      C32            33.0845075783      -28.1038935947       11.9965631315  MEMB      70              0.0000000000
      7429        70  POPC      H2X            33.9705883410      -28.7343599388       11.7691996917  MEMB      70              0.0000000000
      7430        70  POPC      H2Y            33.1605056829      -27.2816382774       12.7398272201  MEMB      70              0.0000000000
      7431        70  POPC      C23            35.9920574157      -32.3170893177       13.3657317804  MEMB      70              0.0000000000
      7432        70  POPC      H3R            35.3681484596      -33.1500432264       12.9768275606  MEMB      70              0.0000000000
      7433        70  POPC      H3S            36.9188624660      -32.8254862599       13.0238463235  MEMB      70              0.0000000000
      7434        70  POPC      C24            35.8912265506      -30.9906036928       12.5892056920  MEMB      70              0.0000000000
      7435        70  POPC      H4R            36.3892140731      -30.1340913321       13.0919139829  MEMB      70              0.0000000000
      7436        70  POPC      H4S            34.8031237862      -30.7662098917       12.5884275689  MEMB      70              0.0000000000
      7437        70  POPC      C25            36.2522634658      -30.9261138915       11.0457319985  MEMB      70              0.0000000000
      7438        70  POPC      H5R            36.0763687726      -29.9720189370       10.5043593251  MEMB      70              0.0000000000
      7439        70  POPC      H5S            35.5779634008      -31.6749360806       10.5778582055  MEMB      70              0.0000000000
      7440        70  POPC      C26            37.7219833333      -31.1996377691       10.7368224778  MEMB      70              0.0000000000
      7441        70  POPC      H6R            37.9164634927      -32.1491456660       11.2799002063  MEMB      70              0.0000000000
      7442        70  POPC      H6S            38.3608873012      -30.4493809741       11.2498888423  MEMB      70              0.0000000000
      7443        70  POPC      C27            38.2095775536      -31.3908508155        9.3497339571  MEMB      70              0.0000000000
      7444        70  POPC      H7R            37.5126403817      -32.1230669897        8.8888011428  MEMB      70              0.0000000000
      7445        70  POPC      H7S            39.1470815841      -31.9859740181        9.3848785222  MEMB      70              0.0000000000
      7446        70  POPC      C28            38.3325027806      -30.0829475274        8.4504467779  MEMB      70              0.0000000000
      7447        70  POPC      H8R            39.3020100704      -29.6379416257        8.7608437940  MEMB      70              0.0000000000
      7448        70  POPC      H8S            37.4286030201      -29.4952860083        8.7186634079  MEMB      70              0.0000000000
      7449        70  POPC      C29            38.2309054270      -30.4996426662        6.9787800230  MEMB      70              0.0000000000
      7450        70  POPC      H91            38.6161062595      -31.5103753243        6.7786804068  MEMB      70              0.0000000000
      7451        70  POPC      C210           37.7536515289      -29.7968307733        5.9590130110  MEMB      70              0.0000000000
      7452        70  POPC      H101           37.8011240380      -30.3019500634        4.9830004509  MEMB      70              0.0000000000
      7453        70  POPC      C211           37.2261257177      -28.4118474659        5.9039519972  MEMB      70              0.0000000000
      7454        70  POPC      H11R           37.7767684274      -27.7820845527        6.6350554195  MEMB      70              0.0000000000
      7455        70  POPC      H11S           36.1744335504      -28.3631497905        6.2587666147  MEMB      70              0.0000000000
      7456        70  POPC      C212           37.2985894037      -27.6719401007        4.5849049417  MEMB      70              0.0000000000
      7457        70  POPC      H12R           38.3235860261      -27.4694407492        4.2071524517  MEMB      70              0.0000000000
      7458        70  POPC      H12S           36.7815243730      -26.6983362368        4.7229633738  MEMB      70              0.0000000000
      7459        70  POPC      C213           36.5623389997      -28.1496319952        3.3646089500  MEMB      70              0.0000000000
      7460        70  POPC      H13R           35.5800674234      -28.6082403927        3.6078002942  MEMB      70              0.0000000000
      7461        70  POPC      H13S           37.1975597026      -28.9546815536        2.9371615754  MEMB      70              0.0000000000
      7462        70  POPC      C214           36.4299025225      -27.2453621929        2.1854262449  MEMB      70              0.0000000000
      7463        70  POPC      H14R           36.1375569491      -27.7892462435        1.2618216421  MEMB      70              0.0000000000
      7464        70  POPC      H14S           37.4492228829      -26.8635253866        1.9629244194  MEMB      70              0.0000000000
      7465        70  POPC      C215           35.4690349094      -25.9920076909        2.3132129868  MEMB      70              0.0000000000
      7466        70  POPC      H15R           35.5855557149      -25.4536771498        1.3483585123  MEMB      70              0.0000000000
      7467        70  POPC      H15S           35.7261395698      -25.3261860162        3.1646250234  MEMB      70              0.0000000000
      7468        70  POPC      C216           33.9338427904      -26.3559213056        2.5691841713  MEMB      70              0.0000000000
      7469        70  POPC      H16R           33.4239791403      -25.3951880182        2.7957928110  MEMB      70              0.0000000000
      7470        70  POPC      H16S           33.9136537068      -26.9761223212        3.4907401931  MEMB      70              0.0000000000
      7471        70  POPC      C217           33.2324941609      -27.0993899912        1.3814923693  MEMB      70              0.0000000000
      7472        70  POPC      H17R           32.1890886320      -27.3541969947        1.6655687524  MEMB      70              0.0000000000
      7473        70  POPC      H17S           33.6724550035      -28.0663634240        1.0563492628  MEMB      70              0.0000000000
      7474        70  POPC      C218           33.2568635872      -26.2955848351        0.0630116497  MEMB      70              0.0000000000
      7475        70  POPC      H18R           32.9382075663      -25.2312999445        0.0717944362  MEMB      70              0.0000000000
      7476        70  POPC      H18S           32.7654505773      -26.7541800849       -0.8215920112  MEMB      70              0.0000000000
      7477        70  POPC      H18T           34.3114777114      -26.4230427385       -0.2623566476  MEMB      70              0.0000000000
      7478        70  POPC      C33            32.5558878322      -27.4833078083       10.7138907075  MEMB      70              0.0000000000
      7479        70  POPC      H3X            31.9176521122      -26.6582352036       11.0962927522  MEMB      70              0.0000000000
      7480        70  POPC      H3Y            32.0258565406      -28.2541337086       10.1145452119  MEMB      70              0.0000000000
      7481        70  POPC      C34            33.5806410418      -26.9438195985        9.6825676862  MEMB      70              0.0000000000
      7482        70  POPC      H4X            34.0890399714      -26.0618597614       10.1275380290  MEMB      70              0.0000000000
      7483        70  POPC      H4Y            32.9637156625      -26.7049838933        8.7899975395  MEMB      70              0.0000000000
      7484        70  POPC      C35            34.6933663739      -27.9767574791        9.2501619950  MEMB      70              0.0000000000
      7485        70  POPC      H5X            35.3239305305      -28.1657683060       10.1451392510  MEMB      70              0.0000000000
      7486        70  POPC      H5Y            35.3141091702      -27.5257949763        8.4466490702  MEMB      70              0.0000000000
      7487        70  POPC      C36            34.2413901662      -29.3943603604        8.8343439248  MEMB      70              0.0000000000
      7488        70  POPC      H6X            33.7543740560      -29.9680523503        9.6516653198  MEMB      70              0.0000000000
      7489        70  POPC      H6Y            35.1639059726      -29.9721684689        8.6120300180  MEMB      70              0.0000000000
      7490        70  POPC      C37            33.4685314151      -29.3401540137        7.5308318650  MEMB      70              0.0000000000
      7491        70  POPC      H7X            34.0802693891      -28.7195048235        6.8417073188  MEMB      70              0.0000000000
      7492        70  POPC      H7Y            32.5067816642      -28.8273689369        7.7462613092  MEMB      70              0.0000000000
      7493        70  POPC      C38            33.1372971395      -30.7313477539        6.8987881720  MEMB      70              0.0000000000
      7494        70  POPC      H8X            32.3269805100      -30.5339249641        6.1648036168  MEMB      70              0.0000000000
      7495        70  POPC      H8Y            32.7748336313      -31.3718040457        7.7311084577  MEMB      70              0.0000000000
      7496        70  POPC      C39            34.3538845880      -31.4412190978        6.1104786805  MEMB      70              0.0000000000
      7497        70  POPC      H9X            34.4582378733      -32.5010422550        6.4270317991  MEMB      70              0.0000000000
      7498        70  POPC      H9Y            35.3257208674      -30.9516218471        6.3344194909  MEMB      70              0.0000000000
      7499        70  POPC      C310           34.1307945269      -31.4355483461        4.5980604568  MEMB      70              0.0000000000
      7500        70  POPC      H10X           33.9883512808      -30.3507178127        4.4052549551  MEMB      70              0.0000000000
      7501        70  POPC      H10Y           33.1797081383      -31.9725528137        4.3946357960  MEMB      70              0.0000000000
      7502        70  POPC      C311           35.3233253547      -32.0235573639        3.8009235922  MEMB      70              0.0000000000
      7503        70  POPC      H11X           35.6526454341      -32.9626544379        4.2948529674  MEMB      70              0.0000000000
      7504        70  POPC      H11Y           36.1179021919      -31.2488379451        3.8536345340  MEMB      70              0.0000000000
      7505        70  POPC      C312           34.9709626583      -32.3097403783        2.3515295684  MEMB      70              0.0000000000
      7506        70  POPC      H12X           34.2162899267      -33.1246131475        2.3793215454  MEMB      70              0.0000000000
      7507        70  POPC      H12Y           35.8664876861      -32.6514751637        1.7897705112  MEMB      70              0.0000000000
      7508        70  POPC      C313           34.4444190067      -30.9842985198        1.6763965141  MEMB      70              0.0000000000
      7509        70  POPC      H13X           34.9918005576      -30.0459258174        1.9091007625  MEMB      70              0.0000000000
      7510        70  POPC      H13Y           33.4597086814      -30.7151473978        2.1148304100  MEMB      70              0.0000000000
      7511        70  POPC      C314           34.1861167561      -31.2600116689        0.1809555022  MEMB      70              0.0000000000
      7512        70  POPC      H14X           33.3982361553      -30.6170511500       -0.2664437143  MEMB      70              0.0000000000
      7513        70  POPC      H14Y           33.8762905608      -32.3142261572        0.0167591869  MEMB      70              0.0000000000
      7514        70  POPC      C315           35.4580641051      -30.9362228332       -0.7293176136  MEMB      70              0.0000000000
      7515        70  POPC      H15X           36.3532958427      -31.3652481722       -0.2305007070  MEMB      70              0.0000000000
      7516        70  POPC      H15Y           35.4914986462      -29.8260098618       -0.7544246612  MEMB      70              0.0000000000
      7517        70  POPC      C316           35.4871040402      -31.6510833261       -2.1274724779  MEMB      70              0.0000000000
      7518        70  POPC      H16X           36.4156474050      -31.3191518133       -2.6392822483  MEMB      70              0.0000000000
      7519        70  POPC      H16Y           34.6292402247      -31.3832481872       -2.7806613550  MEMB      70              0.0000000000
      7520        70  POPC      H16Z           35.6266207530      -32.7523350876       -2.0816362378  MEMB      70              0.0000000000
      7521        71  POPC      N              48.8755362479        6.4564312799       21.2558037152  MEMB      71              0.0000000000
      7522        71  POPC      C12            49.5427819931        5.7993081294       20.0427390551  MEMB      71              0.0000000000
      7523        71  POPC      H12A           50.0797340589        4.9100243785       20.3381317052  MEMB      71              0.0000000000
      7524        71  POPC      H12B           50.3923053399        6.3735969973       19.7037665213  MEMB      71              0.0000000000
      7525        71  POPC      C13            47.6153783576        5.7257074750       21.6931412718  MEMB      71              0.0000000000
      7526        71  POPC      H13A           47.8226035394        4.7701036915       22.1517031039  MEMB      71              0.0000000000
      7527        71  POPC      H13B           47.1205371148        6.3307888715       22.4383986870  MEMB      71              0.0000000000
      7528        71  POPC      H13C           46.9256971524        5.5202893780       20.8878191757  MEMB      71              0.0000000000
      7529        71  POPC      C14            49.8244070467        6.6955095951       22.4771756901  MEMB      71              0.0000000000
      7530        71  POPC      H14A           50.2746629732        5.7558913582       22.7614062657  MEMB      71              0.0000000000
      7531        71  POPC      H14B           50.6516252072        7.2913022087       22.1206069235  MEMB      71              0.0000000000
      7532        71  POPC      H14C           49.4251278606        7.2907727387       23.2850356355  MEMB      71              0.0000000000
      7533        71  POPC      C15            48.5313051736        7.8472321629       20.7908610141  MEMB      71              0.0000000000
      7534        71  POPC      H15A           47.5923356166        7.6271697437       20.3047452718  MEMB      71              0.0000000000
      7535        71  POPC      H15B           49.1341248417        8.2091605203       19.9710950432  MEMB      71              0.0000000000
      7536        71  POPC      H15C           48.2810133061        8.5460671551       21.5753248893  MEMB      71              0.0000000000
      7537        71  POPC      C11            48.7660911211        5.3627987448       18.7099204865  MEMB      71              0.0000000000
      7538        71  POPC      H11A           47.8402561276        4.8375331351       19.0281132499  MEMB      71              0.0000000000
      7539        71  POPC      H11B           49.3257852220        4.6233655542       18.0981182001  MEMB      71              0.0000000000
      7540        71  POPC      P              49.0692480394        7.2094745074       16.8001558116  MEMB      71              0.0000000000
      7541        71  POPC      O13            50.4849038634        7.2912269572       17.0790315376  MEMB      71              0.0000000000
      7542        71  POPC      O14            48.3969042132        8.5530997844       16.5655866976  MEMB      71              0.0000000000
      7543        71  POPC      O12            48.3561320305        6.4871577025       18.0129780121  MEMB      71              0.0000000000
      7544        71  POPC      O11            48.8944191214        6.2326780746       15.5726067091  MEMB      71              0.0000000000
      7545        71  POPC      C1             47.6318492991        5.8242745030       15.1931664708  MEMB      71              0.0000000000
      7546        71  POPC      HA             47.0434043320        6.6939951341       14.8303444695  MEMB      71              0.0000000000
      7547        71  POPC      HB             47.1744973401        5.3626667811       16.0943146747  MEMB      71              0.0000000000
      7548        71  POPC      C2             47.6636827477        4.7449505950       14.0828160653  MEMB      71              0.0000000000
      7549        71  POPC      HS             47.8630395951        3.7921670219       14.6183357018  MEMB      71              0.0000000000
      7550        71  POPC      O21            48.6386881497        5.0238320776       13.0956667809  MEMB      71              0.0000000000
      7551        71  POPC      C21            49.7968507684        4.4106333002       13.2478638001  MEMB      71              0.0000000000
      7552        71  POPC      O22            50.2296400071        3.9253325462       14.2725769949  MEMB      71              0.0000000000
      7553        71  POPC      C22            50.6238574163        4.7643157016       11.9641125826  MEMB      71              0.0000000000
      7554        71  POPC      H2R            51.6128207732        5.1887819135       12.2399767298  MEMB      71              0.0000000000
      7555        71  POPC      H2S            50.2352331476        5.6096013571       11.3568363612  MEMB      71              0.0000000000
      7556        71  POPC      C3             46.3237280009        4.6399175185       13.5226316353  MEMB      71              0.0000000000
      7557        71  POPC      HX             45.9578225291        5.6111368584       13.1261885576  MEMB      71              0.0000000000
      7558        71  POPC      HY             45.5948135980        4.3669738902       14.3154156719  MEMB      71              0.0000000000
      7559        71  POPC      O31            46.2400042819        3.6357996541       12.4541906153  MEMB      71              0.0000000000
      7560        71  POPC      C31            45.0162197926        3.4878754601       11.8662477358  MEMB      71              0.0000000000
      7561        71  POPC      O32            44.0135762971        4.0745099836       12.1892575326  MEMB      71              0.0000000000
      7562        71  POPC      C32            44.9345824715        2.3651972251       10.8339951104  MEMB      71              0.0000000000
      7563        71  POPC      H2X            43.9355264291        2.3288555910       10.3493436302  MEMB      71              0.0000000000
      7564        71  POPC      H2Y            45.1724810034        1.4254744572       11.3768086911  MEMB      71              0.0000000000
      7565        71  POPC      C23            50.9483423769        3.6098456435       11.0207517933  MEMB      71              0.0000000000
      7566        71  POPC      H3R            51.2762295748        2.6901628337       11.5508406850  MEMB      71              0.0000000000
      7567        71  POPC      H3S            51.8378747213        3.8753792463       10.4103871223  MEMB      71              0.0000000000
      7568        71  POPC      C24            49.9499123131        3.3305351956        9.9067186923  MEMB      71              0.0000000000
      7569        71  POPC      H4R            49.6926434470        4.2806581416        9.3915490975  MEMB      71              0.0000000000
      7570        71  POPC      H4S            49.0432943397        2.9318631206       10.4101330305  MEMB      71              0.0000000000
      7571        71  POPC      C25            50.5921725811        2.3349395853        8.9712792613  MEMB      71              0.0000000000
      7572        71  POPC      H5R            50.8481254414        1.3981335159        9.5109122024  MEMB      71              0.0000000000
      7573        71  POPC      H5S            51.4792905023        2.7698910055        8.4631846977  MEMB      71              0.0000000000
      7574        71  POPC      C26            49.6708233341        1.9380683021        7.7814945882  MEMB      71              0.0000000000
      7575        71  POPC      H6R            48.7772919195        1.4119678772        8.1804199272  MEMB      71              0.0000000000
      7576        71  POPC      H6S            50.1779690276        1.2104916027        7.1123485160  MEMB      71              0.0000000000
      7577        71  POPC      C27            49.2174709097        3.0661697606        6.9190600004  MEMB      71              0.0000000000
      7578        71  POPC      H7R            50.1015150422        3.6705580000        6.6232527882  MEMB      71              0.0000000000
      7579        71  POPC      H7S            48.4802546959        3.7067702020        7.4486487460  MEMB      71              0.0000000000
      7580        71  POPC      C28            48.5157785463        2.7597767096        5.6824763856  MEMB      71              0.0000000000
      7581        71  POPC      H8R            49.1420328228        2.4469139426        4.8197809741  MEMB      71              0.0000000000
      7582        71  POPC      H8S            48.2109496814        3.7963494582        5.4237929442  MEMB      71              0.0000000000
      7583        71  POPC      C29            47.5095273032        1.6432478619        5.7540382839  MEMB      71              0.0000000000
      7584        71  POPC      H91            47.9199032546        0.6409633900        5.9464376475  MEMB      71              0.0000000000
      7585        71  POPC      C210           46.1669525955        1.7129602210        5.4866421897  MEMB      71              0.0000000000
      7586        71  POPC      H101           45.5277169169        0.8355573756        5.3090423633  MEMB      71              0.0000000000
      7587        71  POPC      C211           45.4360541057        2.9724695945        5.0522622139  MEMB      71              0.0000000000
      7588        71  POPC      H11R           46.1320816063        3.7825581110        4.7462828484  MEMB      71              0.0000000000
      7589        71  POPC      H11S           44.8850749511        3.3392160156        5.9445850816  MEMB      71              0.0000000000
      7590        71  POPC      C212           44.2378040286        2.7550946433        4.0583571934  MEMB      71              0.0000000000
      7591        71  POPC      H12R           43.5298347958        3.6095915041        4.0041769471  MEMB      71              0.0000000000
      7592        71  POPC      H12S           43.4925875336        1.9741173890        4.3211273023  MEMB      71              0.0000000000
      7593        71  POPC      C213           44.6793074003        2.5548964292        2.5793426705  MEMB      71              0.0000000000
      7594        71  POPC      H13R           43.8435759666        2.8601590898        1.9139938594  MEMB      71              0.0000000000
      7595        71  POPC      H13S           44.8108763141        1.4793895631        2.3337905741  MEMB      71              0.0000000000
      7596        71  POPC      C214           45.6421144329        3.5768212218        2.1221030167  MEMB      71              0.0000000000
      7597        71  POPC      H14R           46.6295712338        3.2928089680        2.5446992046  MEMB      71              0.0000000000
      7598        71  POPC      H14S           45.4873254564        4.6251898746        2.4556979466  MEMB      71              0.0000000000
      7599        71  POPC      C215           45.8936692615        3.6216544164        0.6140694328  MEMB      71              0.0000000000
      7600        71  POPC      H15R           45.1861608819        4.2395027721        0.0207596732  MEMB      71              0.0000000000
      7601        71  POPC      H15S           45.8616517981        2.6169953360        0.1408309689  MEMB      71              0.0000000000
      7602        71  POPC      C216           47.2941743452        4.1557722953        0.1698935879  MEMB      71              0.0000000000
      7603        71  POPC      H16R           47.5242123344        4.9667375293        0.8935905041  MEMB      71              0.0000000000
      7604        71  POPC      H16S           47.2930319756        4.5840190086       -0.8552524419  MEMB      71              0.0000000000
      7605        71  POPC      C217           48.4323858414        3.1631121104        0.4050956513  MEMB      71              0.0000000000
      7606        71  POPC      H17R           48.1266011371        2.2489322525       -0.1472567963  MEMB      71              0.0000000000
      7607        71  POPC      H17S           48.6356215891        2.8775461757        1.4593565531  MEMB      71              0.0000000000
      7608        71  POPC      C218           49.7217966100        3.6289655485       -0.1685400080  MEMB      71              0.0000000000
      7609        71  POPC      H18R           49.4862833469        3.9188707636       -1.2148715443  MEMB      71              0.0000000000
      7610        71  POPC      H18S           50.5036666656        2.8400582816       -0.1435279698  MEMB      71              0.0000000000
      7611        71  POPC      H18T           50.1149986988        4.5224980912        0.3618476790  MEMB      71              0.0000000000
      7612        71  POPC      C33            45.8880170908        2.5494047607        9.6146576399  MEMB      71              0.0000000000
      7613        71  POPC      H3X            46.0069712070        1.5732044169        9.0977400693  MEMB      71              0.0000000000
      7614        71  POPC      H3Y            46.9259231575        2.8111207086        9.9122762283  MEMB      71              0.0000000000
      7615        71  POPC      C34            45.5069574619        3.4349295264        8.4854784772  MEMB      71              0.0000000000
      7616        71  POPC      H4X            44.6672404320        2.9640431174        7.9309862792  MEMB      71              0.0000000000
      7617        71  POPC      H4Y            46.3718634903        3.4227770914        7.7882623047  MEMB      71              0.0000000000
      7618        71  POPC      C35            45.2184791500        4.8574397083        8.9189176796  MEMB      71              0.0000000000
      7619        71  POPC      H5X            44.4041088795        4.8536403862        9.6746338590  MEMB      71              0.0000000000
      7620        71  POPC      H5Y            44.8143734049        5.3965247914        8.0355111628  MEMB      71              0.0000000000
      7621        71  POPC      C36            46.4884250530        5.5870373064        9.3383284276  MEMB      71              0.0000000000
      7622        71  POPC      H6X            47.0985505509        5.7536263032        8.4249194316  MEMB      71              0.0000000000
      7623        71  POPC      H6Y            46.9739980130        4.9286509249       10.0900378500  MEMB      71              0.0000000000
      7624        71  POPC      C37            46.2131946797        6.9676468207       10.0438783435  MEMB      71              0.0000000000
      7625        71  POPC      H7X            45.5445503958        6.8198051805       10.9187377271  MEMB      71              0.0000000000
      7626        71  POPC      H7Y            45.7451059139        7.7697915016        9.4341426152  MEMB      71              0.0000000000
      7627        71  POPC      C38            47.5462652071        7.6503796767       10.5388913673  MEMB      71              0.0000000000
      7628        71  POPC      H8X            48.0600640171        6.8770383698       11.1490346068  MEMB      71              0.0000000000
      7629        71  POPC      H8Y            47.1919084554        8.4607260558       11.2112685758  MEMB      71              0.0000000000
      7630        71  POPC      C39            48.4871762891        8.1753974141        9.4257733903  MEMB      71              0.0000000000
      7631        71  POPC      H9X            49.1365261069        7.3389064625        9.0896953606  MEMB      71              0.0000000000
      7632        71  POPC      H9Y            49.1989369578        8.9284536783        9.8265535115  MEMB      71              0.0000000000
      7633        71  POPC      C310           47.8962409476        8.8268537373        8.1896501074  MEMB      71              0.0000000000
      7634        71  POPC      H10X           47.1451930986        9.6113988732        8.4236095054  MEMB      71              0.0000000000
      7635        71  POPC      H10Y           47.2802597099        8.0198231000        7.7384405157  MEMB      71              0.0000000000
      7636        71  POPC      C311           48.8190961698        9.3321388495        7.0590699834  MEMB      71              0.0000000000
      7637        71  POPC      H11X           49.5807439948        8.5235298355        7.0399709547  MEMB      71              0.0000000000
      7638        71  POPC      H11Y           49.2016150411       10.3020690398        7.4427835440  MEMB      71              0.0000000000
      7639        71  POPC      C312           48.2848559020        9.6756510901        5.6958241007  MEMB      71              0.0000000000
      7640        71  POPC      H12X           49.1957165640       10.0254662344        5.1645207877  MEMB      71              0.0000000000
      7641        71  POPC      H12Y           47.5164491591       10.4536495005        5.8922687271  MEMB      71              0.0000000000
      7642        71  POPC      C313           47.4454552861        8.6323888718        4.8836480047  MEMB      71              0.0000000000
      7643        71  POPC      H13X           46.5950913258        8.3359425911        5.5342800296  MEMB      71              0.0000000000
      7644        71  POPC      H13Y           48.0183678359        7.6913421234        4.7403904734  MEMB      71              0.0000000000
      7645        71  POPC      C314           46.7653224088        9.1082553505        3.5627589575  MEMB      71              0.0000000000
      7646        71  POPC      H14X           47.4735273620        9.3324045653        2.7366087193  MEMB      71              0.0000000000
      7647        71  POPC      H14Y           46.0609902263        9.9475742081        3.7465561750  MEMB      71              0.0000000000
      7648        71  POPC      C315           45.9668050345        7.8594015816        3.0917720605  MEMB      71              0.0000000000
      7649        71  POPC      H15X           45.2365289667        7.6731347459        3.9080577926  MEMB      71              0.0000000000
      7650        71  POPC      H15Y           46.6034123463        6.9520919677        3.0153442935  MEMB      71              0.0000000000
      7651        71  POPC      C316           45.2041485989        8.0406376928        1.7973743643  MEMB      71              0.0000000000
      7652        71  POPC      H16X           44.8059341527        7.0792003512        1.4082946455  MEMB      71              0.0000000000
      7653        71  POPC      H16Y           45.9245626171        8.5285511300        1.1065310979  MEMB      71              0.0000000000
      7654        71  POPC      H16Z           44.2889892403        8.6613065877        1.9049614860  MEMB      71              0.0000000000
      7655        72  POPC      N              47.0935612507       -1.0281499958       18.3638212919  MEMB      72              0.0000000000
      7656        72  POPC      C12            48.4777573366       -0.4321182601       18.1045866093  MEMB      72              0.0000000000
      7657        72  POPC      H12A           48.5228869857        0.3283249960       17.3390218305  MEMB      72              0.0000000000
      7658        72  POPC      H12B           48.9950316012       -1.1592791695       17.4962574529  MEMB      72              0.0000000000
      7659        72  POPC      C13            47.0156941494       -2.3604593955       19.0773709921  MEMB      72              0.0000000000
      7660        72  POPC      H13A           47.5538861713       -3.0937870356       18.4951511181  MEMB      72              0.0000000000
      7661        72  POPC      H13B           47.4496965365       -2.2015459473       20.0534798197  MEMB      72              0.0000000000
      7662        72  POPC      H13C           45.9738115195       -2.6086532226       19.2162252981  MEMB      72              0.0000000000
      7663        72  POPC      C14            46.2482275787        0.0205142942       19.0190733885  MEMB      72              0.0000000000
      7664        72  POPC      H14A           45.2629659887       -0.3223848503       19.2985009394  MEMB      72              0.0000000000
      7665        72  POPC      H14B           46.7780104755        0.3320490694       19.9071478131  MEMB      72              0.0000000000
      7666        72  POPC      H14C           46.1862821478        0.8771655693       18.3643127568  MEMB      72              0.0000000000
      7667        72  POPC      C15            46.5911755366       -1.2837721184       16.9882987380  MEMB      72              0.0000000000
      7668        72  POPC      H15A           46.5648664447       -0.3370614964       16.4692158577  MEMB      72              0.0000000000
      7669        72  POPC      H15B           45.5538204542       -1.5776864028       17.0508219305  MEMB      72              0.0000000000
      7670        72  POPC      H15C           47.3107596479       -1.9376549587       16.5181543557  MEMB      72              0.0000000000
      7671        72  POPC      C11            49.3218780528       -0.1349361696       19.3756721348  MEMB      72              0.0000000000
      7672        72  POPC      H11A           48.7486155491        0.4840024257       20.0985870588  MEMB      72              0.0000000000
      7673        72  POPC      H11B           50.2322555986        0.3175106105       18.9275364485  MEMB      72              0.0000000000
      7674        72  POPC      P              50.7891601789       -2.3590648814       19.6529241547  MEMB      72              0.0000000000
      7675        72  POPC      O13            50.2116065050       -3.7227344397       19.3685771011  MEMB      72              0.0000000000
      7676        72  POPC      O14            51.8036945009       -2.3452362453       20.7387782581  MEMB      72              0.0000000000
      7677        72  POPC      O12            49.6211702368       -1.3793207060       20.0020058536  MEMB      72              0.0000000000
      7678        72  POPC      O11            51.3987565771       -1.7217028793       18.3088914726  MEMB      72              0.0000000000
      7679        72  POPC      C1             51.6813014521       -2.6805606764       17.1747743917  MEMB      72              0.0000000000
      7680        72  POPC      HA             50.7369520249       -2.9951852432       16.6812802058  MEMB      72              0.0000000000
      7681        72  POPC      HB             52.0912756607       -3.6654929183       17.4848558751  MEMB      72              0.0000000000
      7682        72  POPC      C2             52.6393776340       -1.9384450614       16.2398800003  MEMB      72              0.0000000000
      7683        72  POPC      HS             53.6538765025       -2.0623103585       16.6755063019  MEMB      72              0.0000000000
      7684        72  POPC      O21            52.2664501882       -0.5366938798       16.0558357897  MEMB      72              0.0000000000
      7685        72  POPC      C21            53.1655458307        0.1115568909       15.3522133182  MEMB      72              0.0000000000
      7686        72  POPC      O22            54.3433167185       -0.1540111405       15.2828886522  MEMB      72              0.0000000000
      7687        72  POPC      C22            52.5959407623        1.3312926378       14.6641248386  MEMB      72              0.0000000000
      7688        72  POPC      H2R            53.2506915596        2.2283486560       14.6943347234  MEMB      72              0.0000000000
      7689        72  POPC      H2S            51.6959265941        1.7264122206       15.1819818346  MEMB      72              0.0000000000
      7690        72  POPC      C3             52.5959431093       -2.6823902961       14.8718729779  MEMB      72              0.0000000000
      7691        72  POPC      HX             52.7008043023       -3.7447588287       15.1796038447  MEMB      72              0.0000000000
      7692        72  POPC      HY             53.5031532961       -2.3980116479       14.2970519398  MEMB      72              0.0000000000
      7693        72  POPC      O31            51.3553832698       -2.4280087442       14.1569879537  MEMB      72              0.0000000000
      7694        72  POPC      C31            50.7717837583       -3.5461405325       13.7627254954  MEMB      72              0.0000000000
      7695        72  POPC      O32            51.2723075545       -4.6815277634       13.6961223708  MEMB      72              0.0000000000
      7696        72  POPC      C32            49.2806769170       -3.2673963289       13.3120142243  MEMB      72              0.0000000000
      7697        72  POPC      H2X            48.9865287422       -2.2089235443       13.4776433074  MEMB      72              0.0000000000
      7698        72  POPC      H2Y            48.6528567733       -3.8103869598       14.0504748441  MEMB      72              0.0000000000
      7699        72  POPC      C23            52.0523411176        1.0306005527       13.2961142547  MEMB      72              0.0000000000
      7700        72  POPC      H3R            51.3758048545        1.8293549163       12.9238092706  MEMB      72              0.0000000000
      7701        72  POPC      H3S            51.4270084537        0.1330870456       13.4904068879  MEMB      72              0.0000000000
      7702        72  POPC      C24            53.1031126034        0.5830090687       12.3349846750  MEMB      72              0.0000000000
      7703        72  POPC      H4R            53.7164215580       -0.2077224399       12.8175989953  MEMB      72              0.0000000000
      7704        72  POPC      H4S            53.7307780777        1.4801974446       12.1468076174  MEMB      72              0.0000000000
      7705        72  POPC      C25            52.7212453615        0.1411037733       10.9034591256  MEMB      72              0.0000000000
      7706        72  POPC      H5R            52.2891773281        1.0468140318       10.4266703517  MEMB      72              0.0000000000
      7707        72  POPC      H5S            52.0119789161       -0.7085283580       11.0003476988  MEMB      72              0.0000000000
      7708        72  POPC      C26            53.8892068850       -0.4278765337       10.0763288401  MEMB      72              0.0000000000
      7709        72  POPC      H6R            54.2335605927       -1.3716630170       10.5506801384  MEMB      72              0.0000000000
      7710        72  POPC      H6S            54.7501134273        0.2737720929       10.0471688004  MEMB      72              0.0000000000
      7711        72  POPC      C27            53.4197386588       -0.6694333114        8.6476315846  MEMB      72              0.0000000000
      7712        72  POPC      H7R            54.2688520855       -0.7645308415        7.9375028666  MEMB      72              0.0000000000
      7713        72  POPC      H7S            53.0235243511        0.3209926017        8.3371616177  MEMB      72              0.0000000000
      7714        72  POPC      C28            52.3314917447       -1.7935478214        8.4589020462  MEMB      72              0.0000000000
      7715        72  POPC      H8R            51.9318829824       -1.5541259385        7.4502835220  MEMB      72              0.0000000000
      7716        72  POPC      H8S            51.5819697930       -1.7570163222        9.2781723958  MEMB      72              0.0000000000
      7717        72  POPC      C29            52.8816672108       -3.1625237394        8.6406220184  MEMB      72              0.0000000000
      7718        72  POPC      H91            53.1878774074       -3.4062814762        9.6686382152  MEMB      72              0.0000000000
      7719        72  POPC      C210           53.2174369477       -4.1364999636        7.7794277481  MEMB      72              0.0000000000
      7720        72  POPC      H101           53.6319860672       -5.1084665308        8.0850905883  MEMB      72              0.0000000000
      7721        72  POPC      C211           53.0307547114       -4.1362279017        6.2878077293  MEMB      72              0.0000000000
      7722        72  POPC      H11R           53.4482579618       -5.0217415925        5.7625679095  MEMB      72              0.0000000000
      7723        72  POPC      H11S           53.3623416804       -3.1982239831        5.7933182134  MEMB      72              0.0000000000
      7724        72  POPC      C212           51.4648202640       -4.1692868772        5.8974200025  MEMB      72              0.0000000000
      7725        72  POPC      H12R           50.9680939356       -3.2627661751        6.3046103744  MEMB      72              0.0000000000
      7726        72  POPC      H12S           51.0883465589       -5.1389709373        6.2876776031  MEMB      72              0.0000000000
      7727        72  POPC      C213           51.2217562312       -4.1781150502        4.3881346353  MEMB      72              0.0000000000
      7728        72  POPC      H13R           50.1140433671       -4.2585283612        4.3593773897  MEMB      72              0.0000000000
      7729        72  POPC      H13S           51.7912373514       -5.0148716232        3.9300394840  MEMB      72              0.0000000000
      7730        72  POPC      C214           51.6522324308       -2.9143883392        3.6669662776  MEMB      72              0.0000000000
      7731        72  POPC      H14R           52.7431950780       -2.7063294428        3.6958266793  MEMB      72              0.0000000000
      7732        72  POPC      H14S           51.1508292370       -2.1246609662        4.2663377553  MEMB      72              0.0000000000
      7733        72  POPC      C215           51.2666328295       -2.9639509545        2.1946042911  MEMB      72              0.0000000000
      7734        72  POPC      H15R           51.4212804491       -1.9992610851        1.6656627321  MEMB      72              0.0000000000
      7735        72  POPC      H15S           50.2034995258       -3.2838497095        2.1529708821  MEMB      72              0.0000000000
      7736        72  POPC      C216           52.2204157274       -3.8272747793        1.3490858055  MEMB      72              0.0000000000
      7737        72  POPC      H16R           52.0471419354       -4.9002327268        1.5794292084  MEMB      72              0.0000000000
      7738        72  POPC      H16S           53.2678151571       -3.6051498048        1.6456251708  MEMB      72              0.0000000000
      7739        72  POPC      C217           52.0187663468       -3.5983992097       -0.2019378114  MEMB      72              0.0000000000
      7740        72  POPC      H17R           52.7840369512       -4.1136879149       -0.8209376433  MEMB      72              0.0000000000
      7741        72  POPC      H17S           52.2347269642       -2.5312082045       -0.4228120168  MEMB      72              0.0000000000
      7742        72  POPC      C218           50.6486414442       -3.9229373854       -0.6784094680  MEMB      72              0.0000000000
      7743        72  POPC      H18R           50.4504009438       -5.0146462929       -0.6218997545  MEMB      72              0.0000000000
      7744        72  POPC      H18S           50.5107426693       -3.6635803061       -1.7498753284  MEMB      72              0.0000000000
      7745        72  POPC      H18T           49.7761335501       -3.4665827751       -0.1638307441  MEMB      72              0.0000000000
      7746        72  POPC      C33            48.9837006612       -3.8104341437       11.8967927512  MEMB      72              0.0000000000
      7747        72  POPC      H3X            48.7792262975       -4.8972682139       12.0031076467  MEMB      72              0.0000000000
      7748        72  POPC      H3Y            49.8490882224       -3.5690984812       11.2432010719  MEMB      72              0.0000000000
      7749        72  POPC      C34            47.6705970068       -3.2594065636       11.1994359148  MEMB      72              0.0000000000
      7750        72  POPC      H4X            47.9080301858       -2.1743324983       11.2231195538  MEMB      72              0.0000000000
      7751        72  POPC      H4Y            46.7786056288       -3.5144462441       11.8106862896  MEMB      72              0.0000000000
      7752        72  POPC      C35            47.5287122392       -3.7264610832        9.7304004155  MEMB      72              0.0000000000
      7753        72  POPC      H5X            46.5801051130       -3.2455941524        9.4091027351  MEMB      72              0.0000000000
      7754        72  POPC      H5Y            47.3846525982       -4.8230340267        9.8357366024  MEMB      72              0.0000000000
      7755        72  POPC      C36            48.7104157117       -3.2908584977        8.7919670230  MEMB      72              0.0000000000
      7756        72  POPC      H6X            48.5727358300       -3.8218098174        7.8258119417  MEMB      72              0.0000000000
      7757        72  POPC      H6Y            49.7251816217       -3.5739094547        9.1447463527  MEMB      72              0.0000000000
      7758        72  POPC      C37            48.8210386818       -1.8014853089        8.5063519359  MEMB      72              0.0000000000
      7759        72  POPC      H7X            49.7878554882       -1.6261308109        7.9878572514  MEMB      72              0.0000000000
      7760        72  POPC      H7Y            48.9030379507       -1.2369354016        9.4597042863  MEMB      72              0.0000000000
      7761        72  POPC      C38            47.7465219785       -1.2826773208        7.5917277467  MEMB      72              0.0000000000
      7762        72  POPC      H8X            48.0258835808       -0.2218256565        7.4160239296  MEMB      72              0.0000000000
      7763        72  POPC      H8Y            46.7341371904       -1.4292620219        8.0252141282  MEMB      72              0.0000000000
      7764        72  POPC      C39            47.8104241432       -1.9668476115        6.2815467693  MEMB      72              0.0000000000
      7765        72  POPC      H9X            47.1023179866       -2.7971718407        6.4900381106  MEMB      72              0.0000000000
      7766        72  POPC      H9Y            48.7699521350       -2.4927695970        6.0891077656  MEMB      72              0.0000000000
      7767        72  POPC      C310           47.3601741078       -1.1202686453        5.1213308188  MEMB      72              0.0000000000
      7768        72  POPC      H10X           47.8783219189       -0.1407461559        5.2012024902  MEMB      72              0.0000000000
      7769        72  POPC      H10Y           46.2669026226       -0.9851231259        5.2656020035  MEMB      72              0.0000000000
      7770        72  POPC      C311           47.6229965014       -1.9163227378        3.8583810899  MEMB      72              0.0000000000
      7771        72  POPC      H11X           47.0860669875       -2.8853599744        3.9420150981  MEMB      72              0.0000000000
      7772        72  POPC      H11Y           48.6496027309       -2.3388095637        3.8147311940  MEMB      72              0.0000000000
      7773        72  POPC      C312           47.1367946821       -1.3136551342        2.5980217766  MEMB      72              0.0000000000
      7774        72  POPC      H12X           47.5288397332       -0.2772130427        2.6780788696  MEMB      72              0.0000000000
      7775        72  POPC      H12Y           46.0306952924       -1.4148211203        2.6231314423  MEMB      72              0.0000000000
      7776        72  POPC      C313           47.8079699057       -1.9626729441        1.3902885982  MEMB      72              0.0000000000
      7777        72  POPC      H13X           47.5461183160       -3.0387459979        1.4787287285  MEMB      72              0.0000000000
      7778        72  POPC      H13Y           48.9100014699       -1.9113525731        1.5214891095  MEMB      72              0.0000000000
      7779        72  POPC      C314           47.5421872300       -1.4635399905       -0.0077139661  MEMB      72              0.0000000000
      7780        72  POPC      H14X           46.5127539472       -1.7282998591       -0.3309643313  MEMB      72              0.0000000000
      7781        72  POPC      H14Y           48.2253785480       -1.9470259466       -0.7383395515  MEMB      72              0.0000000000
      7782        72  POPC      C315           47.7046467226        0.0406233984       -0.1963474474  MEMB      72              0.0000000000
      7783        72  POPC      H15X           46.9248053849        0.5924170709        0.3708317905  MEMB      72              0.0000000000
      7784        72  POPC      H15Y           47.4205182985        0.3219482572       -1.2329022133  MEMB      72              0.0000000000
      7785        72  POPC      C316           49.1051532594        0.5378884898        0.0037665895  MEMB      72              0.0000000000
      7786        72  POPC      H16X           49.8221306924       -0.2837016672       -0.2089630887  MEMB      72              0.0000000000
      7787        72  POPC      H16Y           49.3547534488        0.6785907804        1.0771842765  MEMB      72              0.0000000000
      7788        72  POPC      H16Z           49.3138153735        1.4930043996       -0.5239975339  MEMB      72              0.0000000000
      7789        73  POPC      N              -6.4104861693       49.6651099930       20.5715216271  MEMB      73              0.0000000000
      7790        73  POPC      C12            -7.4294494726       50.3987919807       19.7178442088  MEMB      73              0.0000000000
      7791        73  POPC      H12A           -7.3800224983       51.4389750382       20.0041590253  MEMB      73              0.0000000000
      7792        73  POPC      H12B           -8.4674972272       50.1593162759       19.8953496627  MEMB      73              0.0000000000
      7793        73  POPC      C13            -5.0651581003       50.2669606536       20.0730959464  MEMB      73              0.0000000000
      7794        73  POPC      H13A           -4.2641406034       49.6779511607       20.4948054376  MEMB      73              0.0000000000
      7795        73  POPC      H13B           -4.9494026369       50.1461826433       19.0061314535  MEMB      73              0.0000000000
      7796        73  POPC      H13C           -5.0540317968       51.3251625580       20.2886994859  MEMB      73              0.0000000000
      7797        73  POPC      C14            -6.5025877957       50.1075772880       22.0174229784  MEMB      73              0.0000000000
      7798        73  POPC      H14A           -6.0973408091       51.1056965621       22.0944473606  MEMB      73              0.0000000000
      7799        73  POPC      H14B           -7.4657210140       49.9932321796       22.4925012665  MEMB      73              0.0000000000
      7800        73  POPC      H14C           -5.8152069367       49.5337274509       22.6212472657  MEMB      73              0.0000000000
      7801        73  POPC      C15            -6.4758752961       48.1575375392       20.3908938432  MEMB      73              0.0000000000
      7802        73  POPC      H15A           -5.5294757820       47.6374239518       20.4053761424  MEMB      73              0.0000000000
      7803        73  POPC      H15B           -6.9667575174       47.9016097758       19.4635667170  MEMB      73              0.0000000000
      7804        73  POPC      H15C           -7.2248299781       47.8267205871       21.0951857693  MEMB      73              0.0000000000
      7805        73  POPC      C11            -7.3322274015       50.3369837166       18.1925153086  MEMB      73              0.0000000000
      7806        73  POPC      H11A           -6.4285246200       50.9309723901       17.9379180778  MEMB      73              0.0000000000
      7807        73  POPC      H11B           -8.1202560423       50.9562220483       17.7130616078  MEMB      73              0.0000000000
      7808        73  POPC      P              -8.7159475778       48.3234702675       17.6456489528  MEMB      73              0.0000000000
      7809        73  POPC      O13            -9.6215628251       49.2042872128       16.8503369585  MEMB      73              0.0000000000
      7810        73  POPC      O14            -9.1101750257       48.0068016440       19.0989044054  MEMB      73              0.0000000000
      7811        73  POPC      O12            -7.2840280391       48.9724132863       17.5896418807  MEMB      73              0.0000000000
      7812        73  POPC      O11            -8.3617577871       46.9761811243       16.8521738835  MEMB      73              0.0000000000
      7813        73  POPC      C1             -7.2036528171       46.2594278817       17.1786840044  MEMB      73              0.0000000000
      7814        73  POPC      HA             -7.4596417051       45.4385961195       17.8822649303  MEMB      73              0.0000000000
      7815        73  POPC      HB             -6.4116057787       46.9291846549       17.5766895304  MEMB      73              0.0000000000
      7816        73  POPC      C2             -6.6625490755       45.7048628644       15.8352224266  MEMB      73              0.0000000000
      7817        73  POPC      HS             -5.6678549328       45.3331937210       16.1619735828  MEMB      73              0.0000000000
      7818        73  POPC      O21            -6.5875482359       46.6710283362       14.8437468891  MEMB      73              0.0000000000
      7819        73  POPC      C21            -5.6728829579       47.6789961813       14.9639713553  MEMB      73              0.0000000000
      7820        73  POPC      O22            -4.8046012166       47.7052152355       15.7488198747  MEMB      73              0.0000000000
      7821        73  POPC      C22            -5.9335102851       48.7336114234       13.9832227991  MEMB      73              0.0000000000
      7822        73  POPC      H2R            -6.9744761443       49.0489081925       14.2097151486  MEMB      73              0.0000000000
      7823        73  POPC      H2S            -5.9637259257       48.3527509212       12.9399806252  MEMB      73              0.0000000000
      7824        73  POPC      C3             -7.4632634618       44.5675245998       15.2254035291  MEMB      73              0.0000000000
      7825        73  POPC      HX             -7.4186670900       43.6571892770       15.8607159582  MEMB      73              0.0000000000
      7826        73  POPC      HY             -6.9095169085       44.3216390950       14.2941539013  MEMB      73              0.0000000000
      7827        73  POPC      O31            -8.8537696825       44.9497913355       14.9938277113  MEMB      73              0.0000000000
      7828        73  POPC      C31            -9.2910288137       45.0601318611       13.7844519362  MEMB      73              0.0000000000
      7829        73  POPC      O32            -8.7378590692       44.6499064411       12.7825399321  MEMB      73              0.0000000000
      7830        73  POPC      C32           -10.6203553463       45.8042514967       13.7496437940  MEMB      73              0.0000000000
      7831        73  POPC      H2X           -11.3149171197       45.3172209681       14.4670741763  MEMB      73              0.0000000000
      7832        73  POPC      H2Y           -11.2056688009       45.5802897979       12.8322723838  MEMB      73              0.0000000000
      7833        73  POPC      C23            -4.9712756911       49.9252108827       14.0119779124  MEMB      73              0.0000000000
      7834        73  POPC      H3R            -3.9153950506       49.6670143682       13.7822571390  MEMB      73              0.0000000000
      7835        73  POPC      H3S            -4.9918141289       50.2944107970       15.0596376119  MEMB      73              0.0000000000
      7836        73  POPC      C24            -5.4841164194       51.1950300072       13.2266668753  MEMB      73              0.0000000000
      7837        73  POPC      H4R            -5.0075599143       52.0708635261       13.7166980953  MEMB      73              0.0000000000
      7838        73  POPC      H4S            -6.5728826096       51.3607564473       13.3731043048  MEMB      73              0.0000000000
      7839        73  POPC      C25            -5.3171220266       51.1860493249       11.6733520500  MEMB      73              0.0000000000
      7840        73  POPC      H5R            -5.4498908140       52.2311600478       11.3205950092  MEMB      73              0.0000000000
      7841        73  POPC      H5S            -6.0543987778       50.4932946504       11.2141839669  MEMB      73              0.0000000000
      7842        73  POPC      C26            -3.9845959372       50.5760982844       11.2274049545  MEMB      73              0.0000000000
      7843        73  POPC      H6R            -3.9068444280       49.5675912977       11.6869580757  MEMB      73              0.0000000000
      7844        73  POPC      H6S            -3.1677135592       51.1702920618       11.6899607325  MEMB      73              0.0000000000
      7845        73  POPC      C27            -3.8135726882       50.5444443586        9.7563792186  MEMB      73              0.0000000000
      7846        73  POPC      H7R            -2.7853738932       50.2016467504        9.5122118005  MEMB      73              0.0000000000
      7847        73  POPC      H7S            -3.8996701120       51.5845127028        9.3753726519  MEMB      73              0.0000000000
      7848        73  POPC      C28            -4.8296710524       49.6676444695        8.9837469178  MEMB      73              0.0000000000
      7849        73  POPC      H8R            -5.8619148062       50.0693436992        9.0699530945  MEMB      73              0.0000000000
      7850        73  POPC      H8S            -4.8581211590       48.6099315440        9.3225025691  MEMB      73              0.0000000000
      7851        73  POPC      C29            -4.5641877324       49.7538469538        7.5111823652  MEMB      73              0.0000000000
      7852        73  POPC      H91            -4.5159192430       50.7708343844        7.0947607211  MEMB      73              0.0000000000
      7853        73  POPC      C210           -4.1088755524       48.7389160500        6.7234564769  MEMB      73              0.0000000000
      7854        73  POPC      H101           -3.9295906236       49.0832156766        5.6942263879  MEMB      73              0.0000000000
      7855        73  POPC      C211           -3.7640379828       47.3230777444        7.1340756389  MEMB      73              0.0000000000
      7856        73  POPC      H11R           -3.4789709146       47.3231245650        8.2078809632  MEMB      73              0.0000000000
      7857        73  POPC      H11S           -2.9664462174       46.8106027106        6.5548200583  MEMB      73              0.0000000000
      7858        73  POPC      C212           -5.0441060557       46.3425963393        7.2612182672  MEMB      73              0.0000000000
      7859        73  POPC      H12R           -5.7338322020       46.8772303091        7.9487971103  MEMB      73              0.0000000000
      7860        73  POPC      H12S           -4.6993386186       45.3893914624        7.7160331167  MEMB      73              0.0000000000
      7861        73  POPC      C213           -5.7408747784       46.1611099905        5.9832432513  MEMB      73              0.0000000000
      7862        73  POPC      H13R           -5.0881299244       45.8506808901        5.1395138011  MEMB      73              0.0000000000
      7863        73  POPC      H13S           -6.2962278787       47.0562920311        5.6303224110  MEMB      73              0.0000000000
      7864        73  POPC      C214           -6.8042328156       45.0242760380        5.9991077066  MEMB      73              0.0000000000
      7865        73  POPC      H14R           -7.6646228233       45.2340586807        6.6699590618  MEMB      73              0.0000000000
      7866        73  POPC      H14S           -6.3658388552       44.0383308671        6.2637655601  MEMB      73              0.0000000000
      7867        73  POPC      C215           -7.5763209752       44.7923715373        4.6851949411  MEMB      73              0.0000000000
      7868        73  POPC      H15R           -7.7152057238       45.8136911412        4.2705402337  MEMB      73              0.0000000000
      7869        73  POPC      H15S           -8.4763690921       44.1917393165        4.9371378356  MEMB      73              0.0000000000
      7870        73  POPC      C216           -6.8518520043       44.0610743889        3.5186293014  MEMB      73              0.0000000000
      7871        73  POPC      H16R           -6.9136168664       42.9916739708        3.8133994778  MEMB      73              0.0000000000
      7872        73  POPC      H16S           -5.7888271731       44.3752012188        3.4436409613  MEMB      73              0.0000000000
      7873        73  POPC      C217           -7.5268266336       44.3003227842        2.1227618007  MEMB      73              0.0000000000
      7874        73  POPC      H17R           -8.6304551947       44.1999640720        2.2018390647  MEMB      73              0.0000000000
      7875        73  POPC      H17S           -7.3112026895       43.4008718290        1.5072820632  MEMB      73              0.0000000000
      7876        73  POPC      C218           -7.1586285035       45.5869046949        1.3310875776  MEMB      73              0.0000000000
      7877        73  POPC      H18R           -7.6501789581       45.6990671893        0.3410780331  MEMB      73              0.0000000000
      7878        73  POPC      H18S           -6.0599389962       45.6087077707        1.1676040003  MEMB      73              0.0000000000
      7879        73  POPC      H18T           -7.4324509217       46.4353523630        1.9940191312  MEMB      73              0.0000000000
      7880        73  POPC      C33           -10.4183568666       47.1946464381       14.0402585299  MEMB      73              0.0000000000
      7881        73  POPC      H3X            -9.4397549975       47.5250780086       14.4494946844  MEMB      73              0.0000000000
      7882        73  POPC      H3Y           -10.9678711221       47.5214360110       14.9488639052  MEMB      73              0.0000000000
      7883        73  POPC      C34           -10.5845966832       48.1751591086       12.8929167364  MEMB      73              0.0000000000
      7884        73  POPC      H4X           -10.7532049042       49.1909340364       13.3101619477  MEMB      73              0.0000000000
      7885        73  POPC      H4Y           -11.5187700361       47.8772083503       12.3705504972  MEMB      73              0.0000000000
      7886        73  POPC      C35            -9.3228780579       48.1630450849       12.0404260266  MEMB      73              0.0000000000
      7887        73  POPC      H5X            -9.0389104558       47.0994713183       11.8904445080  MEMB      73              0.0000000000
      7888        73  POPC      H5Y            -8.4944370343       48.6366899967       12.6093431397  MEMB      73              0.0000000000
      7889        73  POPC      C36            -9.5486222890       48.8106613894       10.6481694738  MEMB      73              0.0000000000
      7890        73  POPC      H6X            -9.5454627401       49.9156659040       10.7633909784  MEMB      73              0.0000000000
      7891        73  POPC      H6Y           -10.4484107569       48.3741224784       10.1642940232  MEMB      73              0.0000000000
      7892        73  POPC      C37            -8.3074195034       48.4961455207        9.8844685864  MEMB      73              0.0000000000
      7893        73  POPC      H7X            -7.8928970676       47.4859039503       10.0891734631  MEMB      73              0.0000000000
      7894        73  POPC      H7Y            -7.5051839758       49.0787978349       10.3857223632  MEMB      73              0.0000000000
      7895        73  POPC      C38            -8.3428428609       48.8026158584        8.4282933903  MEMB      73              0.0000000000
      7896        73  POPC      H8X            -9.0537831503       48.1679136361        7.8572951602  MEMB      73              0.0000000000
      7897        73  POPC      H8Y            -7.3473427005       48.4303414392        8.1047008917  MEMB      73              0.0000000000
      7898        73  POPC      C39            -8.4558407012       50.2651598248        7.9094409816  MEMB      73              0.0000000000
      7899        73  POPC      H9X            -7.5988556163       50.9374400764        8.1283854521  MEMB      73              0.0000000000
      7900        73  POPC      H9Y            -9.3123055936       50.6925126935        8.4734958130  MEMB      73              0.0000000000
      7901        73  POPC      C310           -8.8388700700       50.4096003515        6.4046096881  MEMB      73              0.0000000000
      7902        73  POPC      H10X           -8.9780905371       51.4745196965        6.1202061764  MEMB      73              0.0000000000
      7903        73  POPC      H10Y           -9.7826556910       49.8272381466        6.3379465055  MEMB      73              0.0000000000
      7904        73  POPC      C311           -7.7645029819       49.7779031581        5.4483886878  MEMB      73              0.0000000000
      7905        73  POPC      H11X           -7.2981880398       48.9547683461        6.0309006580  MEMB      73              0.0000000000
      7906        73  POPC      H11Y           -7.1290484013       50.6636056468        5.2337962785  MEMB      73              0.0000000000
      7907        73  POPC      C312           -8.3112914156       49.1259367250        4.1439936821  MEMB      73              0.0000000000
      7908        73  POPC      H12X           -9.0210325864       48.2924867467        4.3335974262  MEMB      73              0.0000000000
      7909        73  POPC      H12Y           -7.4236307261       48.6499922219        3.6751045555  MEMB      73              0.0000000000
      7910        73  POPC      C313           -9.2114137258       49.9803072356        3.2821492332  MEMB      73              0.0000000000
      7911        73  POPC      H13X           -8.5904073407       50.8694722120        3.0411969840  MEMB      73              0.0000000000
      7912        73  POPC      H13Y          -10.0684795158       50.2305667974        3.9433066190  MEMB      73              0.0000000000
      7913        73  POPC      C314           -9.6101365894       49.2875047633        1.9777397544  MEMB      73              0.0000000000
      7914        73  POPC      H14X          -10.0572768558       48.2908776495        2.1805226529  MEMB      73              0.0000000000
      7915        73  POPC      H14Y           -8.7213889903       49.1400437930        1.3275818294  MEMB      73              0.0000000000
      7916        73  POPC      C315          -10.7766347769       49.9802109003        1.1757614787  MEMB      73              0.0000000000
      7917        73  POPC      H15X          -10.3170428359       50.8324416313        0.6309700688  MEMB      73              0.0000000000
      7918        73  POPC      H15Y          -11.5375908007       50.2362434569        1.9436904832  MEMB      73              0.0000000000
      7919        73  POPC      C316          -11.3481131955       48.9751014521        0.1979139157  MEMB      73              0.0000000000
      7920        73  POPC      H16X          -12.1827652032       49.3845410348       -0.4103926058  MEMB      73              0.0000000000
      7921        73  POPC      H16Y          -11.6995111784       48.1649295608        0.8720536753  MEMB      73              0.0000000000
      7922        73  POPC      H16Z          -10.5523399783       48.6279797517       -0.4953179663  MEMB      73              0.0000000000
      7923        74  POPC      N               6.7543405496      -49.9598558636       18.0339113616  MEMB      74              0.0000000000
      7924        74  POPC      C12             8.3109612107      -50.2195944115       17.9447163702  MEMB      74              0.0000000000
      7925        74  POPC      H12A            8.7096201308      -49.4601939626       17.2883764593  MEMB      74              0.0000000000
      7926        74  POPC      H12B            8.2589851012      -51.2194318563       17.5397181540  MEMB      74              0.0000000000
      7927        74  POPC      C13             6.2447721226      -50.8995484502       19.0825625724  MEMB      74              0.0000000000
      7928        74  POPC      H13A            6.7634021695      -50.5847450173       19.9760510700  MEMB      74              0.0000000000
      7929        74  POPC      H13B            5.1671752611      -50.9295078596       19.1480431093  MEMB      74              0.0000000000
      7930        74  POPC      H13C            6.6459091849      -51.8538381675       18.7746340297  MEMB      74              0.0000000000
      7931        74  POPC      C14             6.5027555257      -48.5463766586       18.4631631663  MEMB      74              0.0000000000
      7932        74  POPC      H14A            5.4898845330      -48.3621675914       18.1367292349  MEMB      74              0.0000000000
      7933        74  POPC      H14B            6.8905531478      -48.2257643039       19.4187889882  MEMB      74              0.0000000000
      7934        74  POPC      H14C            7.1381096794      -48.0037509513       17.7788514178  MEMB      74              0.0000000000
      7935        74  POPC      C15             6.0849847973      -50.1077725500       16.7144843826  MEMB      74              0.0000000000
      7936        74  POPC      H15A            6.1687825677      -51.1321967557       16.3829229662  MEMB      74              0.0000000000
      7937        74  POPC      H15B            6.4376696040      -49.4508591981       15.9331532018  MEMB      74              0.0000000000
      7938        74  POPC      H15C            5.0379976060      -49.8571808818       16.8006328415  MEMB      74              0.0000000000
      7939        74  POPC      C11             9.1619442764      -50.3353658704       19.2176858905  MEMB      74              0.0000000000
      7940        74  POPC      H11A           10.1868007475      -50.7477255596       19.0995769527  MEMB      74              0.0000000000
      7941        74  POPC      H11B            8.6768341855      -51.1053038023       19.8550121384  MEMB      74              0.0000000000
      7942        74  POPC      P              10.4253226296      -48.2272382773       19.9537296363  MEMB      74              0.0000000000
      7943        74  POPC      O13            11.3882357979      -48.8895117349       20.8574310183  MEMB      74              0.0000000000
      7944        74  POPC      O14            10.0201058799      -46.8708499298       20.3601969407  MEMB      74              0.0000000000
      7945        74  POPC      O12             9.1284920131      -49.1113739963       19.9505339616  MEMB      74              0.0000000000
      7946        74  POPC      O11            10.9169842396      -48.2762392568       18.4215847000  MEMB      74              0.0000000000
      7947        74  POPC      C1             11.4068825516      -47.1896915405       17.6962170464  MEMB      74              0.0000000000
      7948        74  POPC      HA             12.0265488072      -47.6329066094       16.8875792524  MEMB      74              0.0000000000
      7949        74  POPC      HB             12.0490446511      -46.5838685853       18.3707000476  MEMB      74              0.0000000000
      7950        74  POPC      C2             10.3613613769      -46.3091473122       17.0773195144  MEMB      74              0.0000000000
      7951        74  POPC      HS              9.6482466592      -45.8705195477       17.8076579344  MEMB      74              0.0000000000
      7952        74  POPC      O21             9.6451257137      -47.0365089221       16.1611179589  MEMB      74              0.0000000000
      7953        74  POPC      C21             8.4569335680      -46.6044201024       15.6954989766  MEMB      74              0.0000000000
      7954        74  POPC      O22             7.8178248558      -45.7088675847       16.2190196907  MEMB      74              0.0000000000
      7955        74  POPC      C22             8.0079275969      -47.3846393894       14.4609500374  MEMB      74              0.0000000000
      7956        74  POPC      H2R             6.9151696353      -47.5348233446       14.5937870494  MEMB      74              0.0000000000
      7957        74  POPC      H2S             8.5508659838      -48.3493425984       14.3666805433  MEMB      74              0.0000000000
      7958        74  POPC      C3             10.9842183668      -45.0269919843       16.4307261390  MEMB      74              0.0000000000
      7959        74  POPC      HX             11.6100936009      -44.3912422692       17.0928619500  MEMB      74              0.0000000000
      7960        74  POPC      HY             10.2499991644      -44.2694751088       16.0822848804  MEMB      74              0.0000000000
      7961        74  POPC      O31            11.8614523439      -45.4231246361       15.3544986894  MEMB      74              0.0000000000
      7962        74  POPC      C31            11.4845491435      -45.1055354095       14.1222241822  MEMB      74              0.0000000000
      7963        74  POPC      O32            10.4691615163      -44.4874630724       13.8280840248  MEMB      74              0.0000000000
      7964        74  POPC      C32            12.4053070524      -45.7678927783       13.0576583777  MEMB      74              0.0000000000
      7965        74  POPC      H2X            13.4492562377      -45.8157151159       13.4347581183  MEMB      74              0.0000000000
      7966        74  POPC      H2Y            12.6040679979      -45.0690349345       12.2171745906  MEMB      74              0.0000000000
      7967        74  POPC      C23             8.0745859433      -46.5760744071       13.1646126717  MEMB      74              0.0000000000
      7968        74  POPC      H3R             9.0255649824      -46.1960168951       12.7338966675  MEMB      74              0.0000000000
      7969        74  POPC      H3S             7.5701865648      -45.5986614081       13.3213483978  MEMB      74              0.0000000000
      7970        74  POPC      C24             7.6110054084      -47.2636565835       11.9020590865  MEMB      74              0.0000000000
      7971        74  POPC      H4R             7.5264377370      -46.4602234829       11.1393898573  MEMB      74              0.0000000000
      7972        74  POPC      H4S             6.5172788655      -47.4083191056       12.0330402028  MEMB      74              0.0000000000
      7973        74  POPC      C25             8.3787090846      -48.4986252590       11.4730944876  MEMB      74              0.0000000000
      7974        74  POPC      H5R             8.5237787288      -49.2610578767       12.2680617012  MEMB      74              0.0000000000
      7975        74  POPC      H5S             9.3832709435      -48.1836859015       11.1181443253  MEMB      74              0.0000000000
      7976        74  POPC      C26             7.6432467192      -49.2609798779       10.3304061631  MEMB      74              0.0000000000
      7977        74  POPC      H6R             6.6687576868      -49.5858979143       10.7536330150  MEMB      74              0.0000000000
      7978        74  POPC      H6S             8.2795940171      -50.1555083289       10.1595203781  MEMB      74              0.0000000000
      7979        74  POPC      C27             7.4821880499      -48.3936126738        9.0245346199  MEMB      74              0.0000000000
      7980        74  POPC      H7R             8.5228834237      -48.0174437642        8.9256854360  MEMB      74              0.0000000000
      7981        74  POPC      H7S             6.7220035158      -47.6513341273        9.3492855717  MEMB      74              0.0000000000
      7982        74  POPC      C28             7.0399161182      -49.1821848342        7.7963289536  MEMB      74              0.0000000000
      7983        74  POPC      H8R             6.2112759234      -49.8092479486        8.1893539746  MEMB      74              0.0000000000
      7984        74  POPC      H8S             7.8582706574      -49.8418968429        7.4366109458  MEMB      74              0.0000000000
      7985        74  POPC      C29             6.5689617761      -48.3705606904        6.6683218972  MEMB      74              0.0000000000
      7986        74  POPC      H91             7.0792126681      -47.3963073999        6.6901072978  MEMB      74              0.0000000000
      7987        74  POPC      C210            5.8029847720      -48.6729578600        5.5617688745  MEMB      74              0.0000000000
      7988        74  POPC      H101            5.7131577309      -47.8076568383        4.8885778214  MEMB      74              0.0000000000
      7989        74  POPC      C211            5.1626665465      -49.9521162555        5.1049125752  MEMB      74              0.0000000000
      7990        74  POPC      H11R            4.0600670068      -49.8158275645        5.1003916552  MEMB      74              0.0000000000
      7991        74  POPC      H11S            5.4306479088      -50.7997658072        5.7712433966  MEMB      74              0.0000000000
      7992        74  POPC      C212            5.6850736448      -50.4253413061        3.6834619679  MEMB      74              0.0000000000
      7993        74  POPC      H12R            5.4249391599      -49.6029104531        2.9832766704  MEMB      74              0.0000000000
      7994        74  POPC      H12S            4.9587099564      -51.2400561466        3.4762029650  MEMB      74              0.0000000000
      7995        74  POPC      C213            7.0790504037      -50.9635510769        3.7075012561  MEMB      74              0.0000000000
      7996        74  POPC      H13R            7.2739031178      -51.5021937777        4.6594555552  MEMB      74              0.0000000000
      7997        74  POPC      H13S            7.5794825196      -49.9921087759        3.9079722447  MEMB      74              0.0000000000
      7998        74  POPC      C214            7.5981787141      -51.5372809779        2.3416289448  MEMB      74              0.0000000000
      7999        74  POPC      H14R            7.6428455511      -50.7332444816        1.5762204654  MEMB      74              0.0000000000
      8000        74  POPC      H14S            7.1485278953      -52.4589665313        1.9142760337  MEMB      74              0.0000000000
      8001        74  POPC      C215            9.0565816575      -51.8176834120        2.4148969574  MEMB      74              0.0000000000
      8002        74  POPC      H15R            9.2023202043      -52.5058030876        3.2748808416  MEMB      74              0.0000000000
      8003        74  POPC      H15S            9.5013910940      -50.8295544528        2.6599813092  MEMB      74              0.0000000000
      8004        74  POPC      C216            9.7704877890      -52.3528311293        1.1974529338  MEMB      74              0.0000000000
      8005        74  POPC      H16R            9.7736559553      -51.5576225236        0.4215963713  MEMB      74              0.0000000000
      8006        74  POPC      H16S            9.2092081801      -53.1843868116        0.7201671677  MEMB      74              0.0000000000
      8007        74  POPC      C217           11.2833934737      -52.7151938187        1.3798068829  MEMB      74              0.0000000000
      8008        74  POPC      H17R           11.7848485349      -52.8745875069        0.4013099366  MEMB      74              0.0000000000
      8009        74  POPC      H17S           11.4124895243      -53.6620214417        1.9465274316  MEMB      74              0.0000000000
      8010        74  POPC      C218           12.1891201190      -51.7257797474        2.1503134382  MEMB      74              0.0000000000
      8011        74  POPC      H18R           11.5896586573      -51.2297719757        2.9433717812  MEMB      74              0.0000000000
      8012        74  POPC      H18S           12.6312507490      -50.8540536686        1.6221689347  MEMB      74              0.0000000000
      8013        74  POPC      H18T           13.0168931888      -52.2694707707        2.6538142457  MEMB      74              0.0000000000
      8014        74  POPC      C33            11.9968664072      -47.1990404085       12.5793994475  MEMB      74              0.0000000000
      8015        74  POPC      H3X            10.9465453074      -47.0952378296       12.2324534157  MEMB      74              0.0000000000
      8016        74  POPC      H3Y            12.1232348749      -47.9435296456       13.3943154251  MEMB      74              0.0000000000
      8017        74  POPC      C34            12.8332972724      -47.6876352811       11.3866702647  MEMB      74              0.0000000000
      8018        74  POPC      H4X            13.9230753731      -47.6097279424       11.5882531439  MEMB      74              0.0000000000
      8019        74  POPC      H4Y            12.6824994159      -47.1091339758       10.4502312263  MEMB      74              0.0000000000
      8020        74  POPC      C35            12.5316427836      -49.1597533501       11.0346286983  MEMB      74              0.0000000000
      8021        74  POPC      H5X            11.4922279615      -49.3602911296       11.3718567308  MEMB      74              0.0000000000
      8022        74  POPC      H5Y            13.2805992645      -49.7237301614       11.6307127802  MEMB      74              0.0000000000
      8023        74  POPC      C36            12.6715427541      -49.3305750410        9.4812954687  MEMB      74              0.0000000000
      8024        74  POPC      H6X            12.8221993835      -50.3882969511        9.1765852892  MEMB      74              0.0000000000
      8025        74  POPC      H6Y            13.6028719762      -48.8597065362        9.1002044345  MEMB      74              0.0000000000
      8026        74  POPC      C37            11.4338687107      -48.8156506874        8.7543269080  MEMB      74              0.0000000000
      8027        74  POPC      H7X            11.1128203213      -47.8998690213        9.2952449159  MEMB      74              0.0000000000
      8028        74  POPC      H7Y            10.6020834424      -49.5518392663        8.7762475727  MEMB      74              0.0000000000
      8029        74  POPC      C38            11.6238284216      -48.3591738043        7.2663546483  MEMB      74              0.0000000000
      8030        74  POPC      H8X            11.4287807017      -49.2948889760        6.7000377417  MEMB      74              0.0000000000
      8031        74  POPC      H8Y            12.6165907436      -47.9586760661        6.9691252087  MEMB      74              0.0000000000
      8032        74  POPC      C39            10.5161099479      -47.4534621969        6.8026872869  MEMB      74              0.0000000000
      8033        74  POPC      H9X            10.7240441899      -46.6203905683        7.5077237295  MEMB      74              0.0000000000
      8034        74  POPC      H9Y             9.4916028216      -47.8385118227        6.9935882234  MEMB      74              0.0000000000
      8035        74  POPC      C310           10.6462706151      -47.0856720546        5.3014862911  MEMB      74              0.0000000000
      8036        74  POPC      H10X           10.9000872333      -47.9527232386        4.6548643312  MEMB      74              0.0000000000
      8037        74  POPC      H10Y           11.3839943696      -46.2821387225        5.0907288544  MEMB      74              0.0000000000
      8038        74  POPC      C311            9.2952401737      -46.5434058188        4.8279019226  MEMB      74              0.0000000000
      8039        74  POPC      H11X            9.1346764316      -45.5314091878        5.2573230911  MEMB      74              0.0000000000
      8040        74  POPC      H11Y            8.4889443022      -47.2534440994        5.1108391554  MEMB      74              0.0000000000
      8041        74  POPC      C312            9.3271853142      -46.3957469244        3.2580736760  MEMB      74              0.0000000000
      8042        74  POPC      H12X            9.8104310225      -47.2417761326        2.7241915780  MEMB      74              0.0000000000
      8043        74  POPC      H12Y            9.8259524315      -45.4238057484        3.0558776176  MEMB      74              0.0000000000
      8044        74  POPC      C313            7.8811112456      -46.1663780522        2.7127751599  MEMB      74              0.0000000000
      8045        74  POPC      H13X            7.5728212470      -45.1812840573        3.1237097802  MEMB      74              0.0000000000
      8046        74  POPC      H13Y            7.2938724752      -47.0104065470        3.1335922743  MEMB      74              0.0000000000
      8047        74  POPC      C314            7.8032843830      -46.2789115642        1.1546473535  MEMB      74              0.0000000000
      8048        74  POPC      H14X            8.5043910838      -47.0614484047        0.7935290808  MEMB      74              0.0000000000
      8049        74  POPC      H14Y            8.0999916380      -45.2726051771        0.7890876095  MEMB      74              0.0000000000
      8050        74  POPC      C315            6.4931921055      -46.5013711767        0.5475499571  MEMB      74              0.0000000000
      8051        74  POPC      H15X            5.8074924273      -45.8556588328        1.1367815520  MEMB      74              0.0000000000
      8052        74  POPC      H15Y            6.2347681921      -47.5818927985        0.5442142420  MEMB      74              0.0000000000
      8053        74  POPC      C316            6.4198799110      -45.9982096392       -0.9660599492  MEMB      74              0.0000000000
      8054        74  POPC      H16X            5.3926205307      -46.2255139010       -1.3229808384  MEMB      74              0.0000000000
      8055        74  POPC      H16Y            7.2189777428      -46.3720170478       -1.6413605558  MEMB      74              0.0000000000
      8056        74  POPC      H16Z            6.5486844710      -44.8961635736       -0.9092724559  MEMB      74              0.0000000000
      8057        75  POPC      N             -19.7765386375       40.5664400852       20.7155852766  MEMB      75              0.0000000000
      8058        75  POPC      C12           -20.5483732409       41.8604001268       20.8320050000  MEMB      75              0.0000000000
      8059        75  POPC      H12A          -19.8428227880       42.6776717955       20.8062059984  MEMB      75              0.0000000000
      8060        75  POPC      H12B          -21.1057142095       41.8318168130       21.7566422644  MEMB      75              0.0000000000
      8061        75  POPC      C13           -20.7348378856       39.4522527724       20.2401098771  MEMB      75              0.0000000000
      8062        75  POPC      H13A          -20.9448783871       39.6586622567       19.2010343225  MEMB      75              0.0000000000
      8063        75  POPC      H13B          -20.2706606247       38.4772913522       20.2203620375  MEMB      75              0.0000000000
      8064        75  POPC      H13C          -21.6218908912       39.4572801730       20.8561552073  MEMB      75              0.0000000000
      8065        75  POPC      C14           -18.6638997274       40.7226419598       19.8143550553  MEMB      75              0.0000000000
      8066        75  POPC      H14A          -19.0636544630       41.0314177508       18.8597589264  MEMB      75              0.0000000000
      8067        75  POPC      H14B          -17.9377163735       41.4631079680       20.1156319571  MEMB      75              0.0000000000
      8068        75  POPC      H14C          -18.1177006955       39.7916419660       19.7782212810  MEMB      75              0.0000000000
      8069        75  POPC      C15           -19.3817293274       40.1787146774       22.1180613145  MEMB      75              0.0000000000
      8070        75  POPC      H15A          -20.1296849692       39.8945499482       22.8434664276  MEMB      75              0.0000000000
      8071        75  POPC      H15B          -18.7591519256       40.9656730065       22.5174282688  MEMB      75              0.0000000000
      8072        75  POPC      H15C          -18.7726105387       39.2909756220       22.0326574455  MEMB      75              0.0000000000
      8073        75  POPC      C11           -21.5251861047       42.1517487506       19.6866509209  MEMB      75              0.0000000000
      8074        75  POPC      H11A          -22.0367392714       43.1054710119       19.9377449309  MEMB      75              0.0000000000
      8075        75  POPC      H11B          -22.2752465807       41.3322266551       19.6759804395  MEMB      75              0.0000000000
      8076        75  POPC      P             -21.7649346224       41.9520538049       17.1336270703  MEMB      75              0.0000000000
      8077        75  POPC      O13           -22.9616468373       42.9155279305       17.0672501255  MEMB      75              0.0000000000
      8078        75  POPC      O14           -22.0701897754       40.5055198934       17.1202710541  MEMB      75              0.0000000000
      8079        75  POPC      O12           -20.9395271375       42.3906352118       18.3656909000  MEMB      75              0.0000000000
      8080        75  POPC      O11           -20.8438283028       42.3225077839       15.9063934418  MEMB      75              0.0000000000
      8081        75  POPC      C1            -19.6256932475       42.9324532304       16.2496909205  MEMB      75              0.0000000000
      8082        75  POPC      HA            -18.9444881685       42.4503779410       16.9830966968  MEMB      75              0.0000000000
      8083        75  POPC      HB            -19.8269808093       44.0190766195       16.3639443815  MEMB      75              0.0000000000
      8084        75  POPC      C2            -18.8007755301       42.9722253654       14.9306924101  MEMB      75              0.0000000000
      8085        75  POPC      HS            -17.8835747465       43.5556950077       15.1600978284  MEMB      75              0.0000000000
      8086        75  POPC      O21           -19.5376818778       43.5741980049       13.9341724955  MEMB      75              0.0000000000
      8087        75  POPC      C21           -19.6278897244       44.9111041472       13.8917111437  MEMB      75              0.0000000000
      8088        75  POPC      O22           -19.2004129264       45.6955474505       14.6885017290  MEMB      75              0.0000000000
      8089        75  POPC      C22           -20.3313625297       45.3060283830       12.5684883797  MEMB      75              0.0000000000
      8090        75  POPC      H2R           -20.2448735678       44.4165512772       11.9084343128  MEMB      75              0.0000000000
      8091        75  POPC      H2S           -19.7823931074       46.1609168630       12.1189117559  MEMB      75              0.0000000000
      8092        75  POPC      C3            -18.4540158067       41.5884280005       14.3480050251  MEMB      75              0.0000000000
      8093        75  POPC      HX            -17.7504680341       41.0196028639       14.9928151445  MEMB      75              0.0000000000
      8094        75  POPC      HY            -17.9364786843       41.7872763602       13.3852301744  MEMB      75              0.0000000000
      8095        75  POPC      O31           -19.6713014050       40.8791548104       14.0646400121  MEMB      75              0.0000000000
      8096        75  POPC      C31           -19.6639184591       39.5278533751       14.3388750929  MEMB      75              0.0000000000
      8097        75  POPC      O32           -18.7595616642       38.9503165834       14.9532446235  MEMB      75              0.0000000000
      8098        75  POPC      C32           -20.9010226815       38.8776571619       13.7319182236  MEMB      75              0.0000000000
      8099        75  POPC      H2X           -21.3286565508       39.6549193472       13.0631030457  MEMB      75              0.0000000000
      8100        75  POPC      H2Y           -21.6748053657       38.7975855275       14.5251206582  MEMB      75              0.0000000000
      8101        75  POPC      C23           -21.8018219542       45.7928235610       12.9589776708  MEMB      75              0.0000000000
      8102        75  POPC      H3R           -22.3672398083       46.0659083412       12.0424362962  MEMB      75              0.0000000000
      8103        75  POPC      H3S           -21.6200269501       46.7705185386       13.4543405227  MEMB      75              0.0000000000
      8104        75  POPC      C24           -22.7090948962       44.8587768901       13.6801561135  MEMB      75              0.0000000000
      8105        75  POPC      H4R           -23.5955115068       45.4221963489       14.0422959469  MEMB      75              0.0000000000
      8106        75  POPC      H4S           -22.1283406765       44.4563443250       14.5375322185  MEMB      75              0.0000000000
      8107        75  POPC      C25           -23.1468028884       43.6898461976       12.7642426386  MEMB      75              0.0000000000
      8108        75  POPC      H5R           -22.2859858011       42.9891832902       12.8130937181  MEMB      75              0.0000000000
      8109        75  POPC      H5S           -23.4400776980       44.0822752037       11.7670913669  MEMB      75              0.0000000000
      8110        75  POPC      C26           -24.3418622832       42.8832392613       13.2862951289  MEMB      75              0.0000000000
      8111        75  POPC      H6R           -25.1761385288       43.6153250496       13.2377740673  MEMB      75              0.0000000000
      8112        75  POPC      H6S           -24.0996151036       42.6105697533       14.3357180680  MEMB      75              0.0000000000
      8113        75  POPC      C27           -24.6951108554       41.5250577156       12.6111716067  MEMB      75              0.0000000000
      8114        75  POPC      H7R           -25.7380735869       41.3136810348       12.9303417367  MEMB      75              0.0000000000
      8115        75  POPC      H7S           -24.0447399749       40.7000177986       12.9726237545  MEMB      75              0.0000000000
      8116        75  POPC      C28           -24.4853157885       41.5922780025       11.1006248747  MEMB      75              0.0000000000
      8117        75  POPC      H8R           -23.4939120204       41.9991628094       10.8075645102  MEMB      75              0.0000000000
      8118        75  POPC      H8S           -25.2227255853       42.3244688583       10.7076303218  MEMB      75              0.0000000000
      8119        75  POPC      C29           -24.4533657266       40.1792939640       10.4791061448  MEMB      75              0.0000000000
      8120        75  POPC      H91           -24.2444812472       39.3398082762       11.1585400002  MEMB      75              0.0000000000
      8121        75  POPC      C210          -24.6062185739       39.9579454059        9.1229378968  MEMB      75              0.0000000000
      8122        75  POPC      H101          -24.8049017280       38.9364461990        8.7664774152  MEMB      75              0.0000000000
      8123        75  POPC      C211          -24.7760662393       41.1124493355        8.1325552393  MEMB      75              0.0000000000
      8124        75  POPC      H11R          -24.9297853403       42.0880463194        8.6413794425  MEMB      75              0.0000000000
      8125        75  POPC      H11S          -25.7182659993       40.9924879190        7.5561968113  MEMB      75              0.0000000000
      8126        75  POPC      C212          -23.4974308564       41.1083468402        7.2569447870  MEMB      75              0.0000000000
      8127        75  POPC      H12R          -23.1017423499       40.0854762871        7.0794980911  MEMB      75              0.0000000000
      8128        75  POPC      H12S          -22.7847401521       41.8786975058        7.6215719737  MEMB      75              0.0000000000
      8129        75  POPC      C213          -23.9266809832       41.6440928703        5.9392739012  MEMB      75              0.0000000000
      8130        75  POPC      H13R          -24.1516241128       42.7305685602        5.9966507099  MEMB      75              0.0000000000
      8131        75  POPC      H13S          -24.8781424605       41.1399950221        5.6655452114  MEMB      75              0.0000000000
      8132        75  POPC      C214          -22.8157410865       41.2537169992        4.8407770070  MEMB      75              0.0000000000
      8133        75  POPC      H14R          -22.8532441366       40.1472409385        4.7479039880  MEMB      75              0.0000000000
      8134        75  POPC      H14S          -21.7945296228       41.6535476967        5.0184949454  MEMB      75              0.0000000000
      8135        75  POPC      C215          -23.2258327765       42.1737631021        3.6265343869  MEMB      75              0.0000000000
      8136        75  POPC      H15R          -22.4866892571       41.8662197177        2.8562066166  MEMB      75              0.0000000000
      8137        75  POPC      H15S          -23.1895341618       43.2543378629        3.8821935726  MEMB      75              0.0000000000
      8138        75  POPC      C216          -24.5978605532       41.8936987446        3.1412062419  MEMB      75              0.0000000000
      8139        75  POPC      H16R          -24.7064541743       42.4703211811        2.1977902799  MEMB      75              0.0000000000
      8140        75  POPC      H16S          -25.4462247540       42.1789528975        3.7994069789  MEMB      75              0.0000000000
      8141        75  POPC      C217          -24.7582439094       40.4020030415        2.7637222562  MEMB      75              0.0000000000
      8142        75  POPC      H17R          -24.9056539032       39.8706196854        3.7282023155  MEMB      75              0.0000000000
      8143        75  POPC      H17S          -23.8378604648       39.9635110039        2.3222025959  MEMB      75              0.0000000000
      8144        75  POPC      C218          -25.8135036288       40.1796547994        1.7536460621  MEMB      75              0.0000000000
      8145        75  POPC      H18R          -26.8515165237       40.2708300325        2.1390513387  MEMB      75              0.0000000000
      8146        75  POPC      H18S          -25.6720391903       39.2197741105        1.2124082493  MEMB      75              0.0000000000
      8147        75  POPC      H18T          -25.7050129907       40.9501817805        0.9606520357  MEMB      75              0.0000000000
      8148        75  POPC      C33           -20.6782779472       37.5092525545       13.0612180742  MEMB      75              0.0000000000
      8149        75  POPC      H3X           -21.6276697002       36.9411254512       13.1622529670  MEMB      75              0.0000000000
      8150        75  POPC      H3Y           -19.9494625074       36.9107958621       13.6485835891  MEMB      75              0.0000000000
      8151        75  POPC      C34           -20.2421020477       37.6566322248       11.6327808952  MEMB      75              0.0000000000
      8152        75  POPC      H4X           -20.9498827622       38.2174034185       10.9855537469  MEMB      75              0.0000000000
      8153        75  POPC      H4Y           -20.1761166326       36.6574085087       11.1516164703  MEMB      75              0.0000000000
      8154        75  POPC      C35           -18.8418684548       38.2248291930       11.3732383476  MEMB      75              0.0000000000
      8155        75  POPC      H5X           -18.2212710535       37.8893271208       12.2315030785  MEMB      75              0.0000000000
      8156        75  POPC      H5Y           -18.9125967023       39.3334840859       11.3874789548  MEMB      75              0.0000000000
      8157        75  POPC      C36           -18.3474933403       37.8445469831        9.9403342625  MEMB      75              0.0000000000
      8158        75  POPC      H6X           -18.6043659456       36.8090933092        9.6302160595  MEMB      75              0.0000000000
      8159        75  POPC      H6Y           -17.2504718503       38.0145842866        9.9845189107  MEMB      75              0.0000000000
      8160        75  POPC      C37           -18.9380279511       38.6095747996        8.7504741547  MEMB      75              0.0000000000
      8161        75  POPC      H7X           -20.0105310610       38.3827519198        8.9310542388  MEMB      75              0.0000000000
      8162        75  POPC      H7Y           -18.5555962483       38.1884236969        7.7961685344  MEMB      75              0.0000000000
      8163        75  POPC      C38           -18.6809780536       40.1126336476        8.7088710394  MEMB      75              0.0000000000
      8164        75  POPC      H8X           -17.6111371895       40.3419592811        8.9016700275  MEMB      75              0.0000000000
      8165        75  POPC      H8Y           -19.1309828647       40.5504786082        9.6254452351  MEMB      75              0.0000000000
      8166        75  POPC      C39           -19.2154567047       40.7920124287        7.4759089462  MEMB      75              0.0000000000
      8167        75  POPC      H9X           -20.3186904069       40.9061956110        7.4114193875  MEMB      75              0.0000000000
      8168        75  POPC      H9Y           -18.7929349236       40.2432878275        6.6071756007  MEMB      75              0.0000000000
      8169        75  POPC      C310          -18.8691174323       42.2318391916        7.3916395257  MEMB      75              0.0000000000
      8170        75  POPC      H10X          -17.7777638863       42.4396575513        7.4005967148  MEMB      75              0.0000000000
      8171        75  POPC      H10Y          -19.3078406686       42.7269693466        8.2842137545  MEMB      75              0.0000000000
      8172        75  POPC      C311          -19.4995103642       42.9410690327        6.2529829849  MEMB      75              0.0000000000
      8173        75  POPC      H11X          -19.2605114716       44.0155966178        6.4032859050  MEMB      75              0.0000000000
      8174        75  POPC      H11Y          -20.5771753444       42.7498151373        6.4437219680  MEMB      75              0.0000000000
      8175        75  POPC      C312          -18.9392392588       42.6299036048        4.8800576028  MEMB      75              0.0000000000
      8176        75  POPC      H12X          -19.3104061097       41.6398799744        4.5388690405  MEMB      75              0.0000000000
      8177        75  POPC      H12Y          -17.8323435605       42.6665961246        4.9681309034  MEMB      75              0.0000000000
      8178        75  POPC      C313          -19.4583266860       43.4968924641        3.8028002214  MEMB      75              0.0000000000
      8179        75  POPC      H13X          -19.4232202763       44.5521796458        4.1484267586  MEMB      75              0.0000000000
      8180        75  POPC      H13Y          -20.5156368575       43.1968797145        3.6402933461  MEMB      75              0.0000000000
      8181        75  POPC      C314          -18.7273121798       43.4834104876        2.3328791079  MEMB      75              0.0000000000
      8182        75  POPC      H14X          -19.4360452021       44.0562273238        1.6973484791  MEMB      75              0.0000000000
      8183        75  POPC      H14Y          -18.6596850983       42.4956450499        1.8288281185  MEMB      75              0.0000000000
      8184        75  POPC      C315          -17.3903508024       44.3428181710        2.3702491545  MEMB      75              0.0000000000
      8185        75  POPC      H15X          -16.5938543782       43.9184804843        3.0182093988  MEMB      75              0.0000000000
      8186        75  POPC      H15Y          -17.5363137065       45.3052067092        2.9058087519  MEMB      75              0.0000000000
      8187        75  POPC      C316          -16.6598902674       44.5153277559        1.0524574607  MEMB      75              0.0000000000
      8188        75  POPC      H16X          -16.3462732707       43.5018295727        0.7226286855  MEMB      75              0.0000000000
      8189        75  POPC      H16Y          -15.7611460183       45.1465384343        1.2202457796  MEMB      75              0.0000000000
      8190        75  POPC      H16Z          -17.3090926366       44.9207769357        0.2471814743  MEMB      75              0.0000000000
      8191        76  POPC      N             -35.7140904900      -25.2003084468       17.3730127654  MEMB      76              0.0000000000
      8192        76  POPC      C12           -36.6613417811      -26.2353226823       18.0159000496  MEMB      76              0.0000000000
      8193        76  POPC      H12A          -36.7387088159      -27.1390525576       17.4296521158  MEMB      76              0.0000000000
      8194        76  POPC      H12B          -37.6334163720      -25.8001956483       17.8366362076  MEMB      76              0.0000000000
      8195        76  POPC      C13           -35.7351047428      -23.9810235460       18.1244549270  MEMB      76              0.0000000000
      8196        76  POPC      H13A          -36.6945376971      -23.4932480465       18.0352166142  MEMB      76              0.0000000000
      8197        76  POPC      H13B          -35.4932414787      -24.1107665638       19.1689974009  MEMB      76              0.0000000000
      8198        76  POPC      H13C          -35.0178891539      -23.2892924324       17.7079100369  MEMB      76              0.0000000000
      8199        76  POPC      C14           -34.2835195618      -25.6880977191       17.2492312734  MEMB      76              0.0000000000
      8200        76  POPC      H14A          -34.1608527014      -26.5069775272       16.5558420054  MEMB      76              0.0000000000
      8201        76  POPC      H14B          -33.6640039856      -25.0533206095       16.6330667123  MEMB      76              0.0000000000
      8202        76  POPC      H14C          -33.7815190493      -25.9112032740       18.1790802991  MEMB      76              0.0000000000
      8203        76  POPC      C15           -36.2318432184      -24.9102704116       16.0547004769  MEMB      76              0.0000000000
      8204        76  POPC      H15A          -35.6674455771      -24.0845311831       15.6472571865  MEMB      76              0.0000000000
      8205        76  POPC      H15B          -37.2946704771      -24.7249678871       16.0050893716  MEMB      76              0.0000000000
      8206        76  POPC      H15C          -36.1317836880      -25.7762120282       15.4171008566  MEMB      76              0.0000000000
      8207        76  POPC      C11           -36.7019660506      -26.5851306331       19.5088738370  MEMB      76              0.0000000000
      8208        76  POPC      H11A          -35.7926771597      -27.2185748233       19.5880143354  MEMB      76              0.0000000000
      8209        76  POPC      H11B          -37.5589790952      -27.2807176541       19.6353973396  MEMB      76              0.0000000000
      8210        76  POPC      P             -38.1911232437      -24.7194769856       20.6104031245  MEMB      76              0.0000000000
      8211        76  POPC      O13           -37.9466129368      -23.2857603007       20.2196614968  MEMB      76              0.0000000000
      8212        76  POPC      O14           -38.7867667104      -25.0322830480       21.9060387835  MEMB      76              0.0000000000
      8213        76  POPC      O12           -36.8074634700      -25.5360845215       20.4527613595  MEMB      76              0.0000000000
      8214        76  POPC      O11           -39.1778149948      -25.4459114020       19.4849619014  MEMB      76              0.0000000000
      8215        76  POPC      C1            -39.6936330400      -24.5540209484       18.5642895428  MEMB      76              0.0000000000
      8216        76  POPC      HA            -38.8519514637      -24.1061149326       17.9939622043  MEMB      76              0.0000000000
      8217        76  POPC      HB            -40.3191548319      -23.7568663059       19.0199077457  MEMB      76              0.0000000000
      8218        76  POPC      C2            -40.7148642276      -25.3114219263       17.6766914387  MEMB      76              0.0000000000
      8219        76  POPC      HS            -41.3216852310      -25.9689803056       18.3352549270  MEMB      76              0.0000000000
      8220        76  POPC      O21           -39.9981703205      -26.1710647804       16.7885319438  MEMB      76              0.0000000000
      8221        76  POPC      C21           -40.6422740464      -26.8216814491       15.8054190184  MEMB      76              0.0000000000
      8222        76  POPC      O22           -41.8859461879      -26.9508545310       15.8426789365  MEMB      76              0.0000000000
      8223        76  POPC      C22           -39.7280584925      -27.3079436632       14.7684563204  MEMB      76              0.0000000000
      8224        76  POPC      H2R           -39.2249686472      -28.2031703729       15.1924735672  MEMB      76              0.0000000000
      8225        76  POPC      H2S           -38.9207431326      -26.5690054892       14.5773197566  MEMB      76              0.0000000000
      8226        76  POPC      C3            -41.5989445767      -24.3168566958       16.8924230285  MEMB      76              0.0000000000
      8227        76  POPC      HX            -42.1023998092      -23.6827746543       17.6532076763  MEMB      76              0.0000000000
      8228        76  POPC      HY            -42.3568724445      -24.9363387329       16.3669629365  MEMB      76              0.0000000000
      8229        76  POPC      O31           -40.7813717326      -23.5350870575       16.0589139798  MEMB      76              0.0000000000
      8230        76  POPC      C31           -41.5024194054      -22.6425481198       15.2662690481  MEMB      76              0.0000000000
      8231        76  POPC      O32           -42.7328881166      -22.5025785414       15.2989607472  MEMB      76              0.0000000000
      8232        76  POPC      C32           -40.5360020339      -21.8538837235       14.3242516569  MEMB      76              0.0000000000
      8233        76  POPC      H2X           -40.0497816168      -21.0526208324       14.9208155413  MEMB      76              0.0000000000
      8234        76  POPC      H2Y           -41.1649221436      -21.3902156952       13.5344460342  MEMB      76              0.0000000000
      8235        76  POPC      C23           -40.3785902600      -27.7961135066       13.4919306716  MEMB      76              0.0000000000
      8236        76  POPC      H3R           -41.2662923788      -28.4049470017       13.7669354477  MEMB      76              0.0000000000
      8237        76  POPC      H3S           -39.8181639952      -28.6451100894       13.0453343110  MEMB      76              0.0000000000
      8238        76  POPC      C24           -40.4955588525      -26.7582245797       12.3132390493  MEMB      76              0.0000000000
      8239        76  POPC      H4R           -39.5142255674      -26.2438780903       12.2310609894  MEMB      76              0.0000000000
      8240        76  POPC      H4S           -41.3709628807      -26.1012183114       12.5038478642  MEMB      76              0.0000000000
      8241        76  POPC      C25           -40.8827320418      -27.4585018313       11.0353372608  MEMB      76              0.0000000000
      8242        76  POPC      H5R           -41.9058599411      -27.8700253835       11.1701680038  MEMB      76              0.0000000000
      8243        76  POPC      H5S           -40.1924186213      -28.3130733314       10.8695177843  MEMB      76              0.0000000000
      8244        76  POPC      C26           -40.6315915343      -26.5111458629        9.8316354945  MEMB      76              0.0000000000
      8245        76  POPC      H6R           -39.6099120975      -26.0749965236        9.8153345966  MEMB      76              0.0000000000
      8246        76  POPC      H6S           -41.4160214669      -25.7327272366        9.9458945377  MEMB      76              0.0000000000
      8247        76  POPC      C27           -40.8274819923      -27.4204032773        8.5981201379  MEMB      76              0.0000000000
      8248        76  POPC      H7R           -41.9010298891      -27.7046769462        8.6298088263  MEMB      76              0.0000000000
      8249        76  POPC      H7S           -40.1596245025      -28.3068224568        8.5476372592  MEMB      76              0.0000000000
      8250        76  POPC      C28           -40.6174379955      -26.5419236563        7.2928803408  MEMB      76              0.0000000000
      8251        76  POPC      H8R           -40.6944794156      -27.2522484460        6.4421016165  MEMB      76              0.0000000000
      8252        76  POPC      H8S           -39.6157444516      -26.0615818557        7.3071194023  MEMB      76              0.0000000000
      8253        76  POPC      C29           -41.7115953312      -25.5059093333        7.1284582675  MEMB      76              0.0000000000
      8254        76  POPC      H91           -42.6633367321      -25.9945141482        6.8726184766  MEMB      76              0.0000000000
      8255        76  POPC      C210          -41.6798826318      -24.1983044354        7.3690466244  MEMB      76              0.0000000000
      8256        76  POPC      H101          -42.5888940409      -23.6040579618        7.1942055036  MEMB      76              0.0000000000
      8257        76  POPC      C211          -40.5800381369      -23.3146945061        7.8888445463  MEMB      76              0.0000000000
      8258        76  POPC      H11R          -40.0055615905      -23.9453678788        8.6005668728  MEMB      76              0.0000000000
      8259        76  POPC      H11S          -41.0838878663      -22.4663101591        8.3994328432  MEMB      76              0.0000000000
      8260        76  POPC      C212          -39.5907603218      -23.0641858934        6.8034353159  MEMB      76              0.0000000000
      8261        76  POPC      H12R          -40.0597665350      -22.5164374100        5.9582581464  MEMB      76              0.0000000000
      8262        76  POPC      H12S          -38.9142516723      -23.8985024712        6.5195819996  MEMB      76              0.0000000000
      8263        76  POPC      C213          -38.5422438083      -22.0660391758        7.3739052184  MEMB      76              0.0000000000
      8264        76  POPC      H13R          -38.0708457087      -22.5254524074        8.2689159501  MEMB      76              0.0000000000
      8265        76  POPC      H13S          -39.0985900548      -21.1778368290        7.7425464957  MEMB      76              0.0000000000
      8266        76  POPC      C214          -37.4831807329      -21.7149586197        6.3282874098  MEMB      76              0.0000000000
      8267        76  POPC      H14R          -37.1138417664      -22.6549287659        5.8652911961  MEMB      76              0.0000000000
      8268        76  POPC      H14S          -36.6706103400      -21.1199254731        6.7973140746  MEMB      76              0.0000000000
      8269        76  POPC      C215          -38.0505484574      -20.7816217355        5.2456632100  MEMB      76              0.0000000000
      8270        76  POPC      H15R          -38.3018562602      -19.8430568975        5.7844221305  MEMB      76              0.0000000000
      8271        76  POPC      H15S          -38.9119215832      -21.3134398968        4.7879216626  MEMB      76              0.0000000000
      8272        76  POPC      C216          -37.1980387080      -20.3689977840        4.0780467248  MEMB      76              0.0000000000
      8273        76  POPC      H16R          -36.1431589711      -20.1902247526        4.3773626118  MEMB      76              0.0000000000
      8274        76  POPC      H16S          -37.6340218507      -19.3743737342        3.8436065359  MEMB      76              0.0000000000
      8275        76  POPC      C217          -37.2292954010      -21.3981554141        2.9310716388  MEMB      76              0.0000000000
      8276        76  POPC      H17R          -38.1099104506      -22.0669545414        3.0385236134  MEMB      76              0.0000000000
      8277        76  POPC      H17S          -36.3267944855      -22.0430965113        2.8689103759  MEMB      76              0.0000000000
      8278        76  POPC      C218          -37.4350127797      -20.6724271055        1.5832334381  MEMB      76              0.0000000000
      8279        76  POPC      H18R          -38.3763224264      -20.0934477763        1.6974263952  MEMB      76              0.0000000000
      8280        76  POPC      H18S          -37.6233584467      -21.4228189409        0.7858868609  MEMB      76              0.0000000000
      8281        76  POPC      H18T          -36.5852523515      -20.0402722612        1.2476600117  MEMB      76              0.0000000000
      8282        76  POPC      C33           -39.3200915858      -22.7354616268       13.8316859532  MEMB      76              0.0000000000
      8283        76  POPC      H3X           -39.7285663758      -23.6436788486       13.3391308218  MEMB      76              0.0000000000
      8284        76  POPC      H3Y           -38.7508864699      -22.9695450879       14.7566353899  MEMB      76              0.0000000000
      8285        76  POPC      C34           -38.3750544653      -22.0435330233       12.8696627312  MEMB      76              0.0000000000
      8286        76  POPC      H4X           -38.1236099891      -21.0411338560       13.2774524066  MEMB      76              0.0000000000
      8287        76  POPC      H4Y           -38.8935106427      -21.9997081946       11.8880294405  MEMB      76              0.0000000000
      8288        76  POPC      C35           -37.0822007076      -22.7551304673       12.4585376742  MEMB      76              0.0000000000
      8289        76  POPC      H5X           -36.5236529761      -22.8521857871       13.4140088332  MEMB      76              0.0000000000
      8290        76  POPC      H5Y           -36.5808500318      -22.1410682008       11.6801440811  MEMB      76              0.0000000000
      8291        76  POPC      C36           -37.2848816774      -24.1360143023       11.8761518435  MEMB      76              0.0000000000
      8292        76  POPC      H6X           -37.9908244551      -24.1809369590       11.0194439251  MEMB      76              0.0000000000
      8293        76  POPC      H6Y           -37.9393403966      -24.6315799861       12.6247637371  MEMB      76              0.0000000000
      8294        76  POPC      C37           -35.9383920707      -24.9626146932       11.5659405862  MEMB      76              0.0000000000
      8295        76  POPC      H7X           -35.5751744140      -25.1455870507       12.5998244305  MEMB      76              0.0000000000
      8296        76  POPC      H7Y           -35.2892992635      -24.3255348773       10.9278747031  MEMB      76              0.0000000000
      8297        76  POPC      C38           -36.1104131577      -26.3757246346       10.9798353187  MEMB      76              0.0000000000
      8298        76  POPC      H8X           -37.1117479454      -26.7259985884       11.3099228080  MEMB      76              0.0000000000
      8299        76  POPC      H8Y           -35.3198361249      -27.0960421303       11.2805870407  MEMB      76              0.0000000000
      8300        76  POPC      C39           -36.0098851353      -26.3956822809        9.4105399011  MEMB      76              0.0000000000
      8301        76  POPC      H9X           -35.0005260329      -26.0141077121        9.1461229952  MEMB      76              0.0000000000
      8302        76  POPC      H9Y           -36.7706239608      -25.6521944923        9.0898796998  MEMB      76              0.0000000000
      8303        76  POPC      C310          -35.9710649786      -27.8109069634        8.8464889222  MEMB      76              0.0000000000
      8304        76  POPC      H10X          -36.9501666304      -28.2691888349        9.1027281369  MEMB      76              0.0000000000
      8305        76  POPC      H10Y          -35.1381539686      -28.2850732881        9.4084014580  MEMB      76              0.0000000000
      8306        76  POPC      C311          -35.6577679574      -28.0057008687        7.3642038768  MEMB      76              0.0000000000
      8307        76  POPC      H11X          -35.3634502425      -29.0627312325        7.1898908027  MEMB      76              0.0000000000
      8308        76  POPC      H11Y          -34.8044479345      -27.3748100853        7.0353531070  MEMB      76              0.0000000000
      8309        76  POPC      C312          -36.8272160228      -27.6083162849        6.4713172331  MEMB      76              0.0000000000
      8310        76  POPC      H12X          -36.8446694370      -26.5118652887        6.2929591867  MEMB      76              0.0000000000
      8311        76  POPC      H12Y          -37.7750799484      -27.9810101848        6.9151348505  MEMB      76              0.0000000000
      8312        76  POPC      C313          -36.6770297604      -28.3643702801        5.1509925152  MEMB      76              0.0000000000
      8313        76  POPC      H13X          -37.1122044847      -29.3796237865        5.2701756026  MEMB      76              0.0000000000
      8314        76  POPC      H13Y          -35.5765678120      -28.4867346510        5.0597162502  MEMB      76              0.0000000000
      8315        76  POPC      C314          -37.2920188990      -27.6044580137        3.9565882458  MEMB      76              0.0000000000
      8316        76  POPC      H14X          -38.3281898634      -27.3447420815        4.2619048484  MEMB      76              0.0000000000
      8317        76  POPC      H14Y          -37.2663031183      -28.1839572620        3.0090447946  MEMB      76              0.0000000000
      8318        76  POPC      C315          -36.4467781676      -26.3594149046        3.6405451068  MEMB      76              0.0000000000
      8319        76  POPC      H15X          -35.5768992385      -26.6362481648        3.0073029482  MEMB      76              0.0000000000
      8320        76  POPC      H15Y          -36.0003487055      -25.8108292456        4.4973266241  MEMB      76              0.0000000000
      8321        76  POPC      C316          -37.1280673761      -25.2780272512        2.8461054729  MEMB      76              0.0000000000
      8322        76  POPC      H16X          -37.3743049761      -25.6139104802        1.8161185242  MEMB      76              0.0000000000
      8323        76  POPC      H16Y          -36.5166075324      -24.3524253371        2.7852863966  MEMB      76              0.0000000000
      8324        76  POPC      H16Z          -38.0714080158      -25.0550290816        3.3889690010  MEMB      76              0.0000000000
      8325        77  POPC      N             -18.7092213004      -46.0941642688       20.3816211901  MEMB      77              0.0000000000
      8326        77  POPC      C12           -18.3350119361      -46.0767277355       18.8701813810  MEMB      77              0.0000000000
      8327        77  POPC      H12A          -18.0714117166      -45.1007787488       18.4901305762  MEMB      77              0.0000000000
      8328        77  POPC      H12B          -19.2634403299      -46.3298310482       18.3799167465  MEMB      77              0.0000000000
      8329        77  POPC      C13           -17.5296368190      -45.9794628719       21.2766699235  MEMB      77              0.0000000000
      8330        77  POPC      H13A          -17.2416553381      -44.9452931731       21.3948215768  MEMB      77              0.0000000000
      8331        77  POPC      H13B          -17.7479379030      -46.3008909034       22.2843548402  MEMB      77              0.0000000000
      8332        77  POPC      H13C          -16.6784782616      -46.5780208613       20.9874340503  MEMB      77              0.0000000000
      8333        77  POPC      C14           -19.6350602309      -44.9542954071       20.7296030764  MEMB      77              0.0000000000
      8334        77  POPC      H14A          -20.0872231066      -45.1133099284       21.6974167332  MEMB      77              0.0000000000
      8335        77  POPC      H14B          -19.0474246558      -44.0481592126       20.7284110836  MEMB      77              0.0000000000
      8336        77  POPC      H14C          -20.4072645572      -44.8727026083       19.9789743938  MEMB      77              0.0000000000
      8337        77  POPC      C15           -19.3900654726      -47.3440009667       20.6898342513  MEMB      77              0.0000000000
      8338        77  POPC      H15A          -20.2643444058      -47.5382943775       20.0862727881  MEMB      77              0.0000000000
      8339        77  POPC      H15B          -19.5797877201      -47.6048408042       21.7205465941  MEMB      77              0.0000000000
      8340        77  POPC      H15C          -18.5779462336      -48.0500205330       20.5981895052  MEMB      77              0.0000000000
      8341        77  POPC      C11           -17.2467395148      -46.9724251153       18.2763621689  MEMB      77              0.0000000000
      8342        77  POPC      H11A          -17.4044984380      -46.9636840176       17.1766546757  MEMB      77              0.0000000000
      8343        77  POPC      H11B          -17.4113574080      -48.0582540467       18.4442833374  MEMB      77              0.0000000000
      8344        77  POPC      P             -14.9944963798      -45.9813986173       17.7517715425  MEMB      77              0.0000000000
      8345        77  POPC      O13           -13.6476383533      -46.0785408369       18.2984902067  MEMB      77              0.0000000000
      8346        77  POPC      O14           -15.5312677064      -44.6029762306       17.4118802445  MEMB      77              0.0000000000
      8347        77  POPC      O12           -15.9644073222      -46.6940956665       18.7537355496  MEMB      77              0.0000000000
      8348        77  POPC      O11           -15.2391829014      -46.9665398107       16.5598504621  MEMB      77              0.0000000000
      8349        77  POPC      C1            -14.6452834002      -48.2552047464       16.4647785996  MEMB      77              0.0000000000
      8350        77  POPC      HA            -15.3977240388      -48.9692487141       16.8626420048  MEMB      77              0.0000000000
      8351        77  POPC      HB            -13.7565020725      -48.3009427325       17.1298325726  MEMB      77              0.0000000000
      8352        77  POPC      C2            -14.4891229350      -48.5508040274       14.9261580667  MEMB      77              0.0000000000
      8353        77  POPC      HS            -13.8797764456      -49.4673676662       14.7747346778  MEMB      77              0.0000000000
      8354        77  POPC      O21           -13.9004826388      -47.4538398920       14.2216221292  MEMB      77              0.0000000000
      8355        77  POPC      C21           -12.6965112136      -46.9036740180       14.5423167552  MEMB      77              0.0000000000
      8356        77  POPC      O22           -11.9310418951      -47.3144763131       15.3447260534  MEMB      77              0.0000000000
      8357        77  POPC      C22           -12.4181843166      -45.6389157655       13.6287247711  MEMB      77              0.0000000000
      8358        77  POPC      H2R           -12.0030209476      -46.0337798760       12.6768621395  MEMB      77              0.0000000000
      8359        77  POPC      H2S           -11.5751636525      -45.1935642599       14.1990744235  MEMB      77              0.0000000000
      8360        77  POPC      C3            -15.9088753631      -48.9076414855       14.3668750656  MEMB      77              0.0000000000
      8361        77  POPC      HX            -16.6174394998      -48.1218387926       14.7056549359  MEMB      77              0.0000000000
      8362        77  POPC      HY            -16.3058282643      -49.8351434181       14.8321595983  MEMB      77              0.0000000000
      8363        77  POPC      O31           -15.9834530684      -49.0246743226       12.9134041773  MEMB      77              0.0000000000
      8364        77  POPC      C31           -16.2925097644      -47.9659960213       12.1064882912  MEMB      77              0.0000000000
      8365        77  POPC      O32           -16.5192634964      -46.8195749262       12.5622635725  MEMB      77              0.0000000000
      8366        77  POPC      C32           -16.1069671005      -48.2374183888       10.6503253794  MEMB      77              0.0000000000
      8367        77  POPC      H2X           -16.1249791109      -47.2394009977       10.1625163529  MEMB      77              0.0000000000
      8368        77  POPC      H2Y           -16.7895137767      -48.9580484530       10.1511829400  MEMB      77              0.0000000000
      8369        77  POPC      C23           -13.5991421549      -44.6827837409       13.4199280749  MEMB      77              0.0000000000
      8370        77  POPC      H3R           -13.8768902943      -44.4515905134       14.4705123107  MEMB      77              0.0000000000
      8371        77  POPC      H3S           -14.5229601732      -45.1322737078       12.9970334942  MEMB      77              0.0000000000
      8372        77  POPC      C24           -13.0748531048      -43.5038764357       12.6237415692  MEMB      77              0.0000000000
      8373        77  POPC      H4R           -12.4704671844      -43.8114816492       11.7437318055  MEMB      77              0.0000000000
      8374        77  POPC      H4S           -12.4171623577      -42.9115259987       13.2952211964  MEMB      77              0.0000000000
      8375        77  POPC      C25           -14.3048747723      -42.6687275498       12.1260035636  MEMB      77              0.0000000000
      8376        77  POPC      H5R           -14.0120576311      -41.6323976837       11.8528737528  MEMB      77              0.0000000000
      8377        77  POPC      H5S           -14.8927740172      -42.4751888828       13.0486293536  MEMB      77              0.0000000000
      8378        77  POPC      C26           -15.3420112120      -43.2965046222       11.2382245166  MEMB      77              0.0000000000
      8379        77  POPC      H6R           -16.0620880746      -42.4787995087       11.0210404186  MEMB      77              0.0000000000
      8380        77  POPC      H6S           -15.6479315888      -44.1547586582       11.8739395389  MEMB      77              0.0000000000
      8381        77  POPC      C27           -14.7551195675      -43.8975671081        9.9289881319  MEMB      77              0.0000000000
      8382        77  POPC      H7R           -15.5406586096      -44.4766144947        9.3979948119  MEMB      77              0.0000000000
      8383        77  POPC      H7S           -13.8889713014      -44.5422743476       10.1906381156  MEMB      77              0.0000000000
      8384        77  POPC      C28           -14.2025867177      -42.8226916031        8.9486373945  MEMB      77              0.0000000000
      8385        77  POPC      H8R           -13.7457090899      -42.0523116720        9.6059792655  MEMB      77              0.0000000000
      8386        77  POPC      H8S           -15.0327114434      -42.2588193403        8.4719173265  MEMB      77              0.0000000000
      8387        77  POPC      C29           -13.3127893769      -43.5118279570        7.8777747801  MEMB      77              0.0000000000
      8388        77  POPC      H91           -12.2238295966      -43.3913494228        7.9760177245  MEMB      77              0.0000000000
      8389        77  POPC      C210          -13.6639050324      -43.9073013701        6.6587228122  MEMB      77              0.0000000000
      8390        77  POPC      H101          -12.9340662117      -44.4357711085        6.0278073314  MEMB      77              0.0000000000
      8391        77  POPC      C211          -15.0643287864      -43.8018738307        6.0733863586  MEMB      77              0.0000000000
      8392        77  POPC      H11R          -15.8764798960      -43.3866153815        6.7076514129  MEMB      77              0.0000000000
      8393        77  POPC      H11S          -15.3529344411      -44.8233978089        5.7454899813  MEMB      77              0.0000000000
      8394        77  POPC      C212          -15.0319327131      -43.0797808099        4.6416899621  MEMB      77              0.0000000000
      8395        77  POPC      H12R          -14.2965709554      -43.6320131739        4.0183094398  MEMB      77              0.0000000000
      8396        77  POPC      H12S          -14.7485336440      -42.0428317013        4.9223002352  MEMB      77              0.0000000000
      8397        77  POPC      C213          -16.4092556818      -42.9500197663        3.9265546916  MEMB      77              0.0000000000
      8398        77  POPC      H13R          -16.1679860816      -42.3694513626        3.0105579542  MEMB      77              0.0000000000
      8399        77  POPC      H13S          -17.0669144232      -42.3613529451        4.6012976320  MEMB      77              0.0000000000
      8400        77  POPC      C214          -17.1167674475      -44.2083616307        3.5162287664  MEMB      77              0.0000000000
      8401        77  POPC      H14R          -17.1252890114      -44.9635799131        4.3310251364  MEMB      77              0.0000000000
      8402        77  POPC      H14S          -16.5584424653      -44.8125105599        2.7695030375  MEMB      77              0.0000000000
      8403        77  POPC      C215          -18.5479088207      -44.0540354809        2.9075435442  MEMB      77              0.0000000000
      8404        77  POPC      H15R          -18.4414017432      -43.4745765499        1.9656278434  MEMB      77              0.0000000000
      8405        77  POPC      H15S          -19.0697920808      -43.6327977366        3.7932743051  MEMB      77              0.0000000000
      8406        77  POPC      C216          -19.2505834990      -45.3389155235        2.5748248217  MEMB      77              0.0000000000
      8407        77  POPC      H16R          -19.5666418728      -45.9368957287        3.4562144874  MEMB      77              0.0000000000
      8408        77  POPC      H16S          -18.5059002081      -45.8604071547        1.9362212038  MEMB      77              0.0000000000
      8409        77  POPC      C217          -20.4735361085      -45.0936881339        1.6398260097  MEMB      77              0.0000000000
      8410        77  POPC      H17R          -20.1916735444      -44.7960095758        0.6072272306  MEMB      77              0.0000000000
      8411        77  POPC      H17S          -21.0903978735      -44.3047310473        2.1208134726  MEMB      77              0.0000000000
      8412        77  POPC      C218          -21.3204507035      -46.3735869742        1.4464271762  MEMB      77              0.0000000000
      8413        77  POPC      H18R          -22.2642597214      -46.3072670415        0.8640622121  MEMB      77              0.0000000000
      8414        77  POPC      H18S          -21.4212146682      -46.7118835583        2.4998598345  MEMB      77              0.0000000000
      8415        77  POPC      H18T          -20.6352061649      -47.0642488439        0.9100056185  MEMB      77              0.0000000000
      8416        77  POPC      C33           -14.6623847852      -48.7893765717       10.3558513037  MEMB      77              0.0000000000
      8417        77  POPC      H3X           -14.6298426416      -49.8221295033       10.7641206943  MEMB      77              0.0000000000
      8418        77  POPC      H3Y           -14.0102006755      -48.1307088522       10.9683331398  MEMB      77              0.0000000000
      8419        77  POPC      C34           -14.2025708088      -48.6314236280        9.0128145351  MEMB      77              0.0000000000
      8420        77  POPC      H4X           -14.3141199298      -47.6203011680        8.5661499156  MEMB      77              0.0000000000
      8421        77  POPC      H4Y           -14.7975673224      -49.2548412497        8.3116369353  MEMB      77              0.0000000000
      8422        77  POPC      C35           -12.6913934686      -48.8821654709        8.8595156458  MEMB      77              0.0000000000
      8423        77  POPC      H5X           -12.5463792561      -49.9824362583        8.8075915214  MEMB      77              0.0000000000
      8424        77  POPC      H5Y           -12.1600220828      -48.4435216288        9.7310419204  MEMB      77              0.0000000000
      8425        77  POPC      C36           -11.9780525993      -48.2691339689        7.6496126828  MEMB      77              0.0000000000
      8426        77  POPC      H6X           -10.9494910354      -48.6779523571        7.5534377097  MEMB      77              0.0000000000
      8427        77  POPC      H6Y           -11.9948347567      -47.1712174773        7.8187827005  MEMB      77              0.0000000000
      8428        77  POPC      C37           -12.6028573637      -48.6767580603        6.3392415724  MEMB      77              0.0000000000
      8429        77  POPC      H7X           -13.4637700524      -47.9817909629        6.2383904524  MEMB      77              0.0000000000
      8430        77  POPC      H7Y           -12.9068482126      -49.7446184538        6.3790509230  MEMB      77              0.0000000000
      8431        77  POPC      C38           -11.6601790856      -48.6585550125        5.1412997874  MEMB      77              0.0000000000
      8432        77  POPC      H8X           -10.8870792846      -49.4470295957        5.2635511743  MEMB      77              0.0000000000
      8433        77  POPC      H8Y           -11.0442666943      -47.7339829935        5.1530978520  MEMB      77              0.0000000000
      8434        77  POPC      C39           -12.2302568244      -48.9734993318        3.7592928634  MEMB      77              0.0000000000
      8435        77  POPC      H9X           -12.0302248492      -50.0429638151        3.5344511938  MEMB      77              0.0000000000
      8436        77  POPC      H9Y           -11.5075666247      -48.4073614136        3.1335710012  MEMB      77              0.0000000000
      8437        77  POPC      C310          -13.6894163653      -48.5522258565        3.4435275123  MEMB      77              0.0000000000
      8438        77  POPC      H10X          -13.7944570418      -47.5107312472        3.8157860480  MEMB      77              0.0000000000
      8439        77  POPC      H10Y          -14.4970913736      -49.1682179419        3.8935671455  MEMB      77              0.0000000000
      8440        77  POPC      C311          -14.0466081926      -48.3870442391        1.9423190650  MEMB      77              0.0000000000
      8441        77  POPC      H11X          -14.2927164019      -49.3971932279        1.5507198103  MEMB      77              0.0000000000
      8442        77  POPC      H11Y          -13.2468780982      -47.8929429830        1.3501904643  MEMB      77              0.0000000000
      8443        77  POPC      C312          -15.4506617702      -47.7924968547        1.6471527842  MEMB      77              0.0000000000
      8444        77  POPC      H12X          -15.4171598647      -46.7777176538        2.0981764803  MEMB      77              0.0000000000
      8445        77  POPC      H12Y          -16.2643961273      -48.2765278990        2.2284204568  MEMB      77              0.0000000000
      8446        77  POPC      C313          -15.7057670822      -47.6857610772        0.1166311870  MEMB      77              0.0000000000
      8447        77  POPC      H13X          -15.5010294796      -48.6868341546       -0.3195526718  MEMB      77              0.0000000000
      8448        77  POPC      H13Y          -14.8698187791      -47.0089844730       -0.1617306812  MEMB      77              0.0000000000
      8449        77  POPC      C314          -17.0442458500      -47.1212434206       -0.3257471289  MEMB      77              0.0000000000
      8450        77  POPC      H14X          -17.3731346470      -46.1128158801        0.0047467496  MEMB      77              0.0000000000
      8451        77  POPC      H14Y          -17.7487121822      -47.8604928941        0.1119261994  MEMB      77              0.0000000000
      8452        77  POPC      C315          -17.4677401992      -47.2658687607       -1.7551696421  MEMB      77              0.0000000000
      8453        77  POPC      H15X          -16.6454030026      -47.1539175606       -2.4937832835  MEMB      77              0.0000000000
      8454        77  POPC      H15Y          -18.2151337951      -46.4480029796       -1.8377493600  MEMB      77              0.0000000000
      8455        77  POPC      C316          -18.2284867807      -48.6145890309       -2.0998595733  MEMB      77              0.0000000000
      8456        77  POPC      H16X          -18.9109065263      -48.8882930219       -1.2669671358  MEMB      77              0.0000000000
      8457        77  POPC      H16Y          -17.4822134336      -49.4120904837       -2.3033009829  MEMB      77              0.0000000000
      8458        77  POPC      H16Z          -18.7820977738      -48.4395477875       -3.0470645117  MEMB      77              0.0000000000
      8459        78  POPC      N              19.6624099818       44.4107283077       19.0211842045  MEMB      78              0.0000000000
      8460        78  POPC      C12            18.3032235422       44.4296836201       18.3045843172  MEMB      78              0.0000000000
      8461        78  POPC      H12A           17.9171667910       43.4210942861       18.3149778107  MEMB      78              0.0000000000
      8462        78  POPC      H12B           18.5495552439       44.6895386594       17.2856652844  MEMB      78              0.0000000000
      8463        78  POPC      C13            19.4289286083       44.2804803912       20.5255219480  MEMB      78              0.0000000000
      8464        78  POPC      H13A           19.1204142302       43.2694572679       20.7469966604  MEMB      78              0.0000000000
      8465        78  POPC      H13B           20.3686647899       44.4741516629       21.0212913568  MEMB      78              0.0000000000
      8466        78  POPC      H13C           18.6300210438       44.8219198575       21.0102798463  MEMB      78              0.0000000000
      8467        78  POPC      C14            20.5378468917       43.2186773249       18.6135953983  MEMB      78              0.0000000000
      8468        78  POPC      H14A           20.0492891011       42.3505962883       19.0309040427  MEMB      78              0.0000000000
      8469        78  POPC      H14B           20.6363891157       43.2991717355       17.5411169088  MEMB      78              0.0000000000
      8470        78  POPC      H14C           21.5423600814       43.3396003224       18.9913927771  MEMB      78              0.0000000000
      8471        78  POPC      C15            20.3374891965       45.6870515878       18.6667187132  MEMB      78              0.0000000000
      8472        78  POPC      H15A           21.1380465216       45.9216162907       19.3526394047  MEMB      78              0.0000000000
      8473        78  POPC      H15B           19.6111403433       46.4863069312       18.6638283641  MEMB      78              0.0000000000
      8474        78  POPC      H15C           20.7630953356       45.5980953451       17.6781105007  MEMB      78              0.0000000000
      8475        78  POPC      C11            17.1103398600       45.3172288060       18.8313811340  MEMB      78              0.0000000000
      8476        78  POPC      H11A           16.7119173318       45.0025300124       19.8195841297  MEMB      78              0.0000000000
      8477        78  POPC      H11B           16.2883955490       45.1769317891       18.0971841925  MEMB      78              0.0000000000
      8478        78  POPC      P              16.4832502264       47.7547488099       19.0640991914  MEMB      78              0.0000000000
      8479        78  POPC      O13            17.0561036456       48.6394846737       20.1195105752  MEMB      78              0.0000000000
      8480        78  POPC      O14            15.1710589918       47.0996518651       19.3813661217  MEMB      78              0.0000000000
      8481        78  POPC      O12            17.5464077529       46.6211439448       18.7138963580  MEMB      78              0.0000000000
      8482        78  POPC      O11            16.3365413290       48.6314306270       17.7581420411  MEMB      78              0.0000000000
      8483        78  POPC      C1             15.4410593137       48.2227584258       16.6593048445  MEMB      78              0.0000000000
      8484        78  POPC      HA             15.2142938990       49.1086368477       16.0283390034  MEMB      78              0.0000000000
      8485        78  POPC      HB             14.4866567948       47.8075380909       17.0479290012  MEMB      78              0.0000000000
      8486        78  POPC      C2             16.2080453582       47.1489489914       15.7704452242  MEMB      78              0.0000000000
      8487        78  POPC      HS             16.6138129139       46.2888123763       16.3447609733  MEMB      78              0.0000000000
      8488        78  POPC      O21            17.4294112688       47.7544159181       15.1946769857  MEMB      78              0.0000000000
      8489        78  POPC      C21            18.2524246964       46.9475399159       14.5956635218  MEMB      78              0.0000000000
      8490        78  POPC      O22            18.2573060399       45.7110493789       14.7213115494  MEMB      78              0.0000000000
      8491        78  POPC      C22            19.2300690416       47.7881082981       13.7007853270  MEMB      78              0.0000000000
      8492        78  POPC      H2R            20.2930433435       47.4650008423       13.7036583107  MEMB      78              0.0000000000
      8493        78  POPC      H2S            19.1286530719       48.8599170582       13.9751245634  MEMB      78              0.0000000000
      8494        78  POPC      C3             15.2390727300       46.6737075958       14.6609722846  MEMB      78              0.0000000000
      8495        78  POPC      HX             14.4237979035       46.0825382916       15.1301912470  MEMB      78              0.0000000000
      8496        78  POPC      HY             15.7848982494       46.0508453422       13.9204061413  MEMB      78              0.0000000000
      8497        78  POPC      O31            14.6405299119       47.7557654328       14.0017944703  MEMB      78              0.0000000000
      8498        78  POPC      C31            14.0135455734       47.5134098429       12.8382553351  MEMB      78              0.0000000000
      8499        78  POPC      O32            13.7857786885       46.4463160814       12.3010511319  MEMB      78              0.0000000000
      8500        78  POPC      C32            13.5285376652       48.7906352717       12.3113018051  MEMB      78              0.0000000000
      8501        78  POPC      H2X            13.2694040997       49.5403839067       13.0891499676  MEMB      78              0.0000000000
      8502        78  POPC      H2Y            12.6209525716       48.4857615194       11.7476866598  MEMB      78              0.0000000000
      8503        78  POPC      C23            18.7558616897       47.8989733342       12.2516816331  MEMB      78              0.0000000000
      8504        78  POPC      H3R            17.8063212654       48.4738935829       12.2981646851  MEMB      78              0.0000000000
      8505        78  POPC      H3S            18.2452826808       46.9456263368       11.9972022730  MEMB      78              0.0000000000
      8506        78  POPC      C24            19.8048405687       48.1371417204       11.2152677022  MEMB      78              0.0000000000
      8507        78  POPC      H4R            20.6412539133       48.8564753319       11.3467717772  MEMB      78              0.0000000000
      8508        78  POPC      H4S            19.2926636844       48.4394091391       10.2768489430  MEMB      78              0.0000000000
      8509        78  POPC      C25            20.5626556271       46.8578042973       10.8017275265  MEMB      78              0.0000000000
      8510        78  POPC      H5R            21.1535981773       46.3907824826       11.6184278377  MEMB      78              0.0000000000
      8511        78  POPC      H5S            21.3353392977       47.2766199031       10.1221139234  MEMB      78              0.0000000000
      8512        78  POPC      C26            19.8874339939       45.7413000789       10.0717471575  MEMB      78              0.0000000000
      8513        78  POPC      H6R            18.9972092063       45.4111527282       10.6486556850  MEMB      78              0.0000000000
      8514        78  POPC      H6S            20.5799912109       44.8758576192        9.9962800903  MEMB      78              0.0000000000
      8515        78  POPC      C27            19.3375767617       46.1679400136        8.6741825978  MEMB      78              0.0000000000
      8516        78  POPC      H7R            19.9473092457       45.7137602073        7.8640785906  MEMB      78              0.0000000000
      8517        78  POPC      H7S            19.3639772458       47.2711522572        8.5455482519  MEMB      78              0.0000000000
      8518        78  POPC      C28            17.9433428745       45.5987568058        8.3039141477  MEMB      78              0.0000000000
      8519        78  POPC      H8R            17.6558153379       46.0843755897        7.3469272821  MEMB      78              0.0000000000
      8520        78  POPC      H8S            17.2748110412       46.0446054706        9.0711204011  MEMB      78              0.0000000000
      8521        78  POPC      C29            17.7403713991       44.0919546199        8.2197816190  MEMB      78              0.0000000000
      8522        78  POPC      H91            17.9995423129       43.5927820352        9.1651156579  MEMB      78              0.0000000000
      8523        78  POPC      C210           17.3713243498       43.3238553051        7.1976971771  MEMB      78              0.0000000000
      8524        78  POPC      H101           17.2884469996       42.2436967062        7.3884565668  MEMB      78              0.0000000000
      8525        78  POPC      C211           17.1201206364       43.8481764946        5.8412087402  MEMB      78              0.0000000000
      8526        78  POPC      H11R           18.0282744213       43.8184247070        5.2019179824  MEMB      78              0.0000000000
      8527        78  POPC      H11S           16.8062229405       44.9126294726        5.8934515724  MEMB      78              0.0000000000
      8528        78  POPC      C212           15.9443263521       43.1050838852        5.0723311773  MEMB      78              0.0000000000
      8529        78  POPC      H12R           16.1738981922       42.0287639298        4.9201690650  MEMB      78              0.0000000000
      8530        78  POPC      H12S           15.7849074174       43.4482784171        4.0277620716  MEMB      78              0.0000000000
      8531        78  POPC      C213           14.5252232575       43.2139618739        5.6469925453  MEMB      78              0.0000000000
      8532        78  POPC      H13R           14.4761413593       42.6002148911        6.5717769306  MEMB      78              0.0000000000
      8533        78  POPC      H13S           13.8648889425       42.6137222305        4.9851825638  MEMB      78              0.0000000000
      8534        78  POPC      C214           14.0216999030       44.5855349481        6.0421353820  MEMB      78              0.0000000000
      8535        78  POPC      H14R           14.8385643274       45.2157673602        6.4542770394  MEMB      78              0.0000000000
      8536        78  POPC      H14S           13.1512314993       44.4995022440        6.7271203753  MEMB      78              0.0000000000
      8537        78  POPC      C215           13.5493430057       45.4559149873        4.7993858425  MEMB      78              0.0000000000
      8538        78  POPC      H15R           12.9367391107       46.3433505694        5.0667729540  MEMB      78              0.0000000000
      8539        78  POPC      H15S           12.9142062307       44.6898998730        4.3052770790  MEMB      78              0.0000000000
      8540        78  POPC      C216           14.6615945301       45.9007417367        3.8280749259  MEMB      78              0.0000000000
      8541        78  POPC      H16R           14.9647427342       45.0025753302        3.2486621236  MEMB      78              0.0000000000
      8542        78  POPC      H16S           15.5262718608       46.1986761683        4.4588588995  MEMB      78              0.0000000000
      8543        78  POPC      C217           14.3159688874       47.1764340051        3.0330744549  MEMB      78              0.0000000000
      8544        78  POPC      H17R           13.9746855026       47.9535347311        3.7499853030  MEMB      78              0.0000000000
      8545        78  POPC      H17S           13.4397017977       46.8316986788        2.4434691412  MEMB      78              0.0000000000
      8546        78  POPC      C218           15.3321345219       47.7252975594        2.0184237063  MEMB      78              0.0000000000
      8547        78  POPC      H18R           16.1624150132       48.0767233980        2.6676196351  MEMB      78              0.0000000000
      8548        78  POPC      H18S           14.8462393690       48.6185153645        1.5707748842  MEMB      78              0.0000000000
      8549        78  POPC      H18T           15.6708684978       46.8586408232        1.4113929110  MEMB      78              0.0000000000
      8550        78  POPC      C33            14.5521699270       49.3725976650       11.2917673148  MEMB      78              0.0000000000
      8551        78  POPC      H3X            15.5241488568       49.6610660421       11.7460402315  MEMB      78              0.0000000000
      8552        78  POPC      H3Y            14.0469622119       50.2776616771       10.8918346166  MEMB      78              0.0000000000
      8553        78  POPC      C34            14.7091528796       48.4969483421       10.0710559038  MEMB      78              0.0000000000
      8554        78  POPC      H4X            13.7086526053       48.2222620584        9.6737312498  MEMB      78              0.0000000000
      8555        78  POPC      H4Y            15.1488315161       47.5620720564       10.4797251239  MEMB      78              0.0000000000
      8556        78  POPC      C35            15.5599069909       49.1821761227        8.9646742965  MEMB      78              0.0000000000
      8557        78  POPC      H5X            15.0676123321       50.0899537236        8.5549105480  MEMB      78              0.0000000000
      8558        78  POPC      H5Y            15.5275305101       48.3709547319        8.2062603065  MEMB      78              0.0000000000
      8559        78  POPC      C36            16.9374215004       49.6700226148        9.3673621227  MEMB      78              0.0000000000
      8560        78  POPC      H6X            17.3030422594       48.8797327777       10.0573504500  MEMB      78              0.0000000000
      8561        78  POPC      H6Y            16.8200167090       50.6409721677        9.8944241006  MEMB      78              0.0000000000
      8562        78  POPC      C37            17.7767065068       49.7941135508        8.1253619343  MEMB      78              0.0000000000
      8563        78  POPC      H7X            17.9850289027       48.8265214113        7.6206949692  MEMB      78              0.0000000000
      8564        78  POPC      H7Y            18.7956647494       50.0659176912        8.4748859470  MEMB      78              0.0000000000
      8565        78  POPC      C38            17.2972341853       50.8045486885        7.0023631503  MEMB      78              0.0000000000
      8566        78  POPC      H8X            18.1512453774       51.2816179167        6.4756842341  MEMB      78              0.0000000000
      8567        78  POPC      H8Y            16.6715918778       51.5356058537        7.5577444480  MEMB      78              0.0000000000
      8568        78  POPC      C39            16.3614532325       50.1958632917        5.8505610828  MEMB      78              0.0000000000
      8569        78  POPC      H9X            16.2477139895       50.9603018153        5.0524271687  MEMB      78              0.0000000000
      8570        78  POPC      H9Y            15.3149394954       50.0302944818        6.1848018364  MEMB      78              0.0000000000
      8571        78  POPC      C310           16.7239182245       48.8504791713        5.2392460495  MEMB      78              0.0000000000
      8572        78  POPC      H10X           16.0595699721       48.7728386627        4.3521524052  MEMB      78              0.0000000000
      8573        78  POPC      H10Y           16.5817005256       48.0625074976        6.0094382535  MEMB      78              0.0000000000
      8574        78  POPC      C311           18.2681947835       48.8227424535        4.8023050415  MEMB      78              0.0000000000
      8575        78  POPC      H11X           18.9150626217       49.3774178519        5.5151997161  MEMB      78              0.0000000000
      8576        78  POPC      H11Y           18.2920355162       49.4908128816        3.9149308777  MEMB      78              0.0000000000
      8577        78  POPC      C312           18.7367638655       47.4707286866        4.4244353680  MEMB      78              0.0000000000
      8578        78  POPC      H12X           18.2009945669       47.0945404622        3.5267973799  MEMB      78              0.0000000000
      8579        78  POPC      H12Y           18.5372418536       46.7736256592        5.2661954942  MEMB      78              0.0000000000
      8580        78  POPC      C313           20.2494482595       47.5096920275        4.2469817782  MEMB      78              0.0000000000
      8581        78  POPC      H13X           20.6796060763       47.9071222706        5.1910871866  MEMB      78              0.0000000000
      8582        78  POPC      H13Y           20.5203239296       48.3287422961        3.5469068996  MEMB      78              0.0000000000
      8583        78  POPC      C314           21.0647225277       46.2668928470        3.6211240878  MEMB      78              0.0000000000
      8584        78  POPC      H14X           21.3661863861       45.7429261647        4.5532720306  MEMB      78              0.0000000000
      8585        78  POPC      H14Y           22.0288592399       46.6259579875        3.2017987967  MEMB      78              0.0000000000
      8586        78  POPC      C315           20.3045276788       45.2975494545        2.7568903275  MEMB      78              0.0000000000
      8587        78  POPC      H15X           19.2254047220       45.3583017785        3.0140363412  MEMB      78              0.0000000000
      8588        78  POPC      H15Y           20.7627949885       44.3026534389        2.9426146298  MEMB      78              0.0000000000
      8589        78  POPC      C316           20.4180057217       45.6564640273        1.2812198708  MEMB      78              0.0000000000
      8590        78  POPC      H16X           21.4040588800       46.1080534996        1.0402068677  MEMB      78              0.0000000000
      8591        78  POPC      H16Y           19.6029953304       46.3883063837        1.0955166787  MEMB      78              0.0000000000
      8592        78  POPC      H16Z           20.2677570985       44.7034201645        0.7303526367  MEMB      78              0.0000000000
      8593        79  POPC      N              47.1518274520      -18.7963053720       20.2488105792  MEMB      79              0.0000000000
      8594        79  POPC      C12            47.7333502913      -18.1811746294       18.9487303873  MEMB      79              0.0000000000
      8595        79  POPC      H12A           48.0552893499      -18.9581805954       18.2712226159  MEMB      79              0.0000000000
      8596        79  POPC      H12B           48.6568377428      -17.6649037319       19.1656065828  MEMB      79              0.0000000000
      8597        79  POPC      C13            47.0232420556      -17.7276671074       21.2870236146  MEMB      79              0.0000000000
      8598        79  POPC      H13A           46.2325244954      -17.1077341076       20.8909823500  MEMB      79              0.0000000000
      8599        79  POPC      H13B           46.7133801588      -18.1474750951       22.2326169897  MEMB      79              0.0000000000
      8600        79  POPC      H13C           47.9241772002      -17.1589759862       21.4639595874  MEMB      79              0.0000000000
      8601        79  POPC      C14            45.8032842365      -19.4089714364       20.0430194140  MEMB      79              0.0000000000
      8602        79  POPC      H14A           45.1053663102      -18.6604781631       19.6979561810  MEMB      79              0.0000000000
      8603        79  POPC      H14B           45.7463957425      -20.2428818149       19.3590917373  MEMB      79              0.0000000000
      8604        79  POPC      H14C           45.4168367534      -19.8052630036       20.9703872354  MEMB      79              0.0000000000
      8605        79  POPC      C15            48.1555468408      -19.8505196021       20.7699231419  MEMB      79              0.0000000000
      8606        79  POPC      H15A           49.1319627663      -19.4026034855       20.8812016124  MEMB      79              0.0000000000
      8607        79  POPC      H15B           48.2622207177      -20.5903431345       19.9903834113  MEMB      79              0.0000000000
      8608        79  POPC      H15C           47.6606110650      -20.4075978677       21.5516535813  MEMB      79              0.0000000000
      8609        79  POPC      C11            46.8279106280      -17.3530844805       17.9919169833  MEMB      79              0.0000000000
      8610        79  POPC      H11A           46.1141186176      -18.0073951089       17.4472156222  MEMB      79              0.0000000000
      8611        79  POPC      H11B           47.5627958892      -16.9326971647       17.2725150590  MEMB      79              0.0000000000
      8612        79  POPC      P              45.6922774872      -14.9363957917       17.9380865031  MEMB      79              0.0000000000
      8613        79  POPC      O13            46.7121719970      -14.5004354459       16.9623863999  MEMB      79              0.0000000000
      8614        79  POPC      O14            45.2119811535      -13.9852343216       18.9481443476  MEMB      79              0.0000000000
      8615        79  POPC      O12            46.1787384751      -16.2608514065       18.6927866492  MEMB      79              0.0000000000
      8616        79  POPC      O11            44.4273491723      -15.4011463189       17.1691719469  MEMB      79              0.0000000000
      8617        79  POPC      C1             43.4328689467      -16.1939486676       17.8894219251  MEMB      79              0.0000000000
      8618        79  POPC      HA             42.6802962018      -15.4698489975       18.2684139057  MEMB      79              0.0000000000
      8619        79  POPC      HB             43.7284538120      -16.7745446604       18.7893435728  MEMB      79              0.0000000000
      8620        79  POPC      C2             42.5565938528      -17.1558764631       17.0090912683  MEMB      79              0.0000000000
      8621        79  POPC      HS             42.2046663846      -17.9937622268       17.6481651132  MEMB      79              0.0000000000
      8622        79  POPC      O21            43.2880346100      -17.5391166317       15.8139914401  MEMB      79              0.0000000000
      8623        79  POPC      C21            43.3469376420      -18.8042701987       15.5093130247  MEMB      79              0.0000000000
      8624        79  POPC      O22            42.7491524910      -19.7047675426       15.9856392751  MEMB      79              0.0000000000
      8625        79  POPC      C22            44.4831979711      -18.9236641229       14.5028051127  MEMB      79              0.0000000000
      8626        79  POPC      H2R            45.3553586369      -19.4963430483       14.8845062169  MEMB      79              0.0000000000
      8627        79  POPC      H2S            44.9010647684      -17.9676489844       14.1210419210  MEMB      79              0.0000000000
      8628        79  POPC      C3             41.2364411735      -16.3379050798       16.5053627676  MEMB      79              0.0000000000
      8629        79  POPC      HX             40.5471898976      -16.2098083504       17.3672472340  MEMB      79              0.0000000000
      8630        79  POPC      HY             40.6996319833      -16.9742549395       15.7696891037  MEMB      79              0.0000000000
      8631        79  POPC      O31            41.7558281877      -15.0517593253       15.9618430149  MEMB      79              0.0000000000
      8632        79  POPC      C31            41.6971029816      -14.9422652699       14.6691689711  MEMB      79              0.0000000000
      8633        79  POPC      O32            41.2188626558      -15.7660391398       13.8536465234  MEMB      79              0.0000000000
      8634        79  POPC      C32            42.4195510653      -13.6206917067       14.3447966153  MEMB      79              0.0000000000
      8635        79  POPC      H2X            42.7156313301      -13.1350477646       15.2991588537  MEMB      79              0.0000000000
      8636        79  POPC      H2Y            41.7964420447      -12.8732611859       13.8086959908  MEMB      79              0.0000000000
      8637        79  POPC      C23            44.0635269153      -19.6858351239       13.2359324281  MEMB      79              0.0000000000
      8638        79  POPC      H3R            43.6998767816      -20.6515045214       13.6477114985  MEMB      79              0.0000000000
      8639        79  POPC      H3S            45.0203867862      -19.8427794026       12.6936145451  MEMB      79              0.0000000000
      8640        79  POPC      C24            42.9572086019      -19.0856229638       12.4954982233  MEMB      79              0.0000000000
      8641        79  POPC      H4R            42.1408208503      -18.7307939093       13.1602751096  MEMB      79              0.0000000000
      8642        79  POPC      H4S            42.4786164907      -19.6622134206       11.6752458210  MEMB      79              0.0000000000
      8643        79  POPC      C25            43.4351060113      -17.7648422356       11.9252064217  MEMB      79              0.0000000000
      8644        79  POPC      H5R            44.3905987289      -18.0222839608       11.4201532873  MEMB      79              0.0000000000
      8645        79  POPC      H5S            43.6055156915      -16.9698730133       12.6823756935  MEMB      79              0.0000000000
      8646        79  POPC      C26            42.4157770952      -17.4884007545       10.8058415888  MEMB      79              0.0000000000
      8647        79  POPC      H6R            41.4124854974      -17.3620483384       11.2660176669  MEMB      79              0.0000000000
      8648        79  POPC      H6S            42.4556570796      -18.3843044725       10.1500315669  MEMB      79              0.0000000000
      8649        79  POPC      C27            42.7665705077      -16.3379194133        9.9193058861  MEMB      79              0.0000000000
      8650        79  POPC      H7R            43.7019081808      -16.4794935986        9.3367073243  MEMB      79              0.0000000000
      8651        79  POPC      H7S            42.9085025144      -15.4426966358       10.5617638975  MEMB      79              0.0000000000
      8652        79  POPC      C28            41.6244258643      -16.0428684071        8.9361768625  MEMB      79              0.0000000000
      8653        79  POPC      H8R            40.7850358997      -15.9330607809        9.6556826859  MEMB      79              0.0000000000
      8654        79  POPC      H8S            41.3386001788      -16.9245014826        8.3235205283  MEMB      79              0.0000000000
      8655        79  POPC      C29            41.7877525488      -14.7191940607        8.1782543803  MEMB      79              0.0000000000
      8656        79  POPC      H91            41.2195778514      -13.8686101899        8.5828335889  MEMB      79              0.0000000000
      8657        79  POPC      C210           42.4815864204      -14.4383003613        7.0446944187  MEMB      79              0.0000000000
      8658        79  POPC      H101           42.7463581812      -13.4167163377        6.7344331076  MEMB      79              0.0000000000
      8659        79  POPC      C211           43.2154315020      -15.5761097419        6.2967044855  MEMB      79              0.0000000000
      8660        79  POPC      H11R           43.2993323111      -16.4697177228        6.9514924025  MEMB      79              0.0000000000
      8661        79  POPC      H11S           44.2779473079      -15.2524150043        6.2721486797  MEMB      79              0.0000000000
      8662        79  POPC      C212           42.7163107766      -15.9949960975        4.8880854064  MEMB      79              0.0000000000
      8663        79  POPC      H12R           41.6483085290      -16.2917350445        4.9631703092  MEMB      79              0.0000000000
      8664        79  POPC      H12S           43.4390271222      -16.7796929851        4.5778391089  MEMB      79              0.0000000000
      8665        79  POPC      C213           42.9238527447      -14.9250397134        3.7452828988  MEMB      79              0.0000000000
      8666        79  POPC      H13R           43.9630385501      -14.5323715296        3.7602940939  MEMB      79              0.0000000000
      8667        79  POPC      H13S           42.2710160823      -14.0325446211        3.8528828180  MEMB      79              0.0000000000
      8668        79  POPC      C214           42.6416532364      -15.7438109512        2.4847375859  MEMB      79              0.0000000000
      8669        79  POPC      H14R           41.6305793456      -16.1788638095        2.6356671499  MEMB      79              0.0000000000
      8670        79  POPC      H14S           43.3667312795      -16.5736671303        2.3435940333  MEMB      79              0.0000000000
      8671        79  POPC      C215           42.4585336202      -14.9674119726        1.1183338008  MEMB      79              0.0000000000
      8672        79  POPC      H15R           42.3471928436      -15.7150775277        0.3041341067  MEMB      79              0.0000000000
      8673        79  POPC      H15S           43.3426280188      -14.3455541325        0.8614478411  MEMB      79              0.0000000000
      8674        79  POPC      C216           41.2364127548      -14.0194823510        1.1059506129  MEMB      79              0.0000000000
      8675        79  POPC      H16R           41.3463516688      -13.0266138690        1.5922087256  MEMB      79              0.0000000000
      8676        79  POPC      H16S           40.4148164903      -14.5763509182        1.6051482007  MEMB      79              0.0000000000
      8677        79  POPC      C217           40.8141361750      -13.8472107362       -0.3628679034  MEMB      79              0.0000000000
      8678        79  POPC      H17R           39.9387606906      -13.1665484785       -0.2940378703  MEMB      79              0.0000000000
      8679        79  POPC      H17S           40.4858701662      -14.7838707594       -0.8620966454  MEMB      79              0.0000000000
      8680        79  POPC      C218           41.7959947138      -13.1646331340       -1.3298469298  MEMB      79              0.0000000000
      8681        79  POPC      H18R           42.1721126084      -12.1584324272       -1.0462695301  MEMB      79              0.0000000000
      8682        79  POPC      H18S           41.2869089083      -12.9986987573       -2.3033038118  MEMB      79              0.0000000000
      8683        79  POPC      H18T           42.5655888393      -13.9488421606       -1.4943526366  MEMB      79              0.0000000000
      8684        79  POPC      C33            43.6758290146      -13.9240936679       13.5094911225  MEMB      79              0.0000000000
      8685        79  POPC      H3X            44.1043504917      -12.9819000112       13.1058059929  MEMB      79              0.0000000000
      8686        79  POPC      H3Y            43.3754491393      -14.6715000588       12.7443269139  MEMB      79              0.0000000000
      8687        79  POPC      C34            44.8458212379      -14.5388098934       14.3401169793  MEMB      79              0.0000000000
      8688        79  POPC      H4X            44.5657329623      -15.5201915611       14.7791634125  MEMB      79              0.0000000000
      8689        79  POPC      H4Y            44.9108887330      -13.8066989668       15.1732440753  MEMB      79              0.0000000000
      8690        79  POPC      C35            46.1733072213      -14.5622964276       13.6879443230  MEMB      79              0.0000000000
      8691        79  POPC      H5X            46.9664670703      -14.6382885418       14.4621817046  MEMB      79              0.0000000000
      8692        79  POPC      H5Y            46.3112710294      -13.6980958857       13.0035140780  MEMB      79              0.0000000000
      8693        79  POPC      C36            46.3673458470      -15.7444992227       12.6946826633  MEMB      79              0.0000000000
      8694        79  POPC      H6X            45.4770574993      -15.6045087693       12.0449822965  MEMB      79              0.0000000000
      8695        79  POPC      H6Y            46.2016018964      -16.7942672465       13.0184686914  MEMB      79              0.0000000000
      8696        79  POPC      C37            47.5985006721      -15.6446303668       11.8905209479  MEMB      79              0.0000000000
      8697        79  POPC      H7X            48.5045131458      -16.0151763482       12.4160284306  MEMB      79              0.0000000000
      8698        79  POPC      H7Y            47.7607714726      -14.5526560910       11.7656960330  MEMB      79              0.0000000000
      8699        79  POPC      C38            47.6241445655      -16.1566569089       10.4537592858  MEMB      79              0.0000000000
      8700        79  POPC      H8X            47.5470717777      -17.2626076382       10.3812762684  MEMB      79              0.0000000000
      8701        79  POPC      H8Y            48.6741926512      -15.9130580872       10.1847242867  MEMB      79              0.0000000000
      8702        79  POPC      C39            46.8125876379      -15.3668404768        9.3302457716  MEMB      79              0.0000000000
      8703        79  POPC      H9X            46.7879360124      -14.2771585589        9.5454354918  MEMB      79              0.0000000000
      8704        79  POPC      H9Y            45.8275162978      -15.8340579071        9.5439355783  MEMB      79              0.0000000000
      8705        79  POPC      C310           47.4199185665      -15.6426743452        8.0041213528  MEMB      79              0.0000000000
      8706        79  POPC      H10X           48.4994185219      -15.3818818391        7.9726894855  MEMB      79              0.0000000000
      8707        79  POPC      H10Y           46.8526167053      -14.9267893007        7.3716671824  MEMB      79              0.0000000000
      8708        79  POPC      C311           47.2891564238      -17.0725690931        7.5076477104  MEMB      79              0.0000000000
      8709        79  POPC      H11X           46.3621762513      -17.5147468778        7.9313309821  MEMB      79              0.0000000000
      8710        79  POPC      H11Y           48.0626531510      -17.6797100189        8.0247580278  MEMB      79              0.0000000000
      8711        79  POPC      C312           47.4381401608      -17.3180760374        6.0423245155  MEMB      79              0.0000000000
      8712        79  POPC      H12X           47.5686570803      -18.3843251237        5.7587776407  MEMB      79              0.0000000000
      8713        79  POPC      H12Y           48.3849561213      -16.8452613202        5.7042313439  MEMB      79              0.0000000000
      8714        79  POPC      C313           46.2596297941      -16.8638218775        5.2565823345  MEMB      79              0.0000000000
      8715        79  POPC      H13X           46.1388277097      -15.7760812742        5.4477584689  MEMB      79              0.0000000000
      8716        79  POPC      H13Y           45.2537842244      -17.0909957973        5.6700895402  MEMB      79              0.0000000000
      8717        79  POPC      C314           46.4890168140      -17.0743396053        3.7555406970  MEMB      79              0.0000000000
      8718        79  POPC      H14X           45.5447719201      -17.1205751783        3.1719439963  MEMB      79              0.0000000000
      8719        79  POPC      H14Y           46.9768597931      -18.0706242243        3.6943248239  MEMB      79              0.0000000000
      8720        79  POPC      C315           47.4380914114      -15.9717431938        3.1709601094  MEMB      79              0.0000000000
      8721        79  POPC      H15X           48.3518381342      -15.8834143130        3.7967286832  MEMB      79              0.0000000000
      8722        79  POPC      H15Y           47.0051608270      -14.9654390080        3.3560110985  MEMB      79              0.0000000000
      8723        79  POPC      C316           47.7535697613      -16.1682919695        1.7028897809  MEMB      79              0.0000000000
      8724        79  POPC      H16X           48.2762775580      -15.2637473575        1.3248723099  MEMB      79              0.0000000000
      8725        79  POPC      H16Y           46.8045119705      -16.2527444304        1.1315068962  MEMB      79              0.0000000000
      8726        79  POPC      H16Z           48.3984482758      -17.0419341807        1.4679388382  MEMB      79              0.0000000000
      8727        80  POPC      N              47.9973331240       13.9607812122       18.3172631101  MEMB      80              0.0000000000
      8728        80  POPC      C12            48.7260993718       15.2905356474       18.5548878655  MEMB      80              0.0000000000
      8729        80  POPC      H12A           48.2684507260       15.9862667106       17.8671989521  MEMB      80              0.0000000000
      8730        80  POPC      H12B           49.7760968002       15.1676970791       18.3339441236  MEMB      80              0.0000000000
      8731        80  POPC      C13            48.3000232611       12.9554716096       19.4431348844  MEMB      80              0.0000000000
      8732        80  POPC      H13A           48.1046772104       13.3998339049       20.4079052849  MEMB      80              0.0000000000
      8733        80  POPC      H13B           47.7255720480       12.0464853827       19.3423883354  MEMB      80              0.0000000000
      8734        80  POPC      H13C           49.3329779225       12.6512581371       19.3603169140  MEMB      80              0.0000000000
      8735        80  POPC      C14            46.4771653858       14.2044794132       18.4335407572  MEMB      80              0.0000000000
      8736        80  POPC      H14A           46.3403082314       14.6876650056       19.3896798478  MEMB      80              0.0000000000
      8737        80  POPC      H14B           46.2272582731       14.9239111771       17.6677963799  MEMB      80              0.0000000000
      8738        80  POPC      H14C           45.9237194237       13.2868570303       18.2991299966  MEMB      80              0.0000000000
      8739        80  POPC      C15            48.4037507302       13.3537386495       17.0420857053  MEMB      80              0.0000000000
      8740        80  POPC      H15A           49.4623445090       13.1421160649       17.0736323653  MEMB      80              0.0000000000
      8741        80  POPC      H15B           48.1451135569       14.0899544912       16.2954310325  MEMB      80              0.0000000000
      8742        80  POPC      H15C           47.8639874191       12.4281623311       16.9065709907  MEMB      80              0.0000000000
      8743        80  POPC      C11            48.7575657655       15.8806828253       20.0183973752  MEMB      80              0.0000000000
      8744        80  POPC      H11A           49.6780095753       16.4620070771       20.2401326772  MEMB      80              0.0000000000
      8745        80  POPC      H11B           48.7304071392       15.0756023278       20.7835306616  MEMB      80              0.0000000000
      8746        80  POPC      P              47.4222526132       18.1547455175       19.4622437744  MEMB      80              0.0000000000
      8747        80  POPC      O13            48.6715416021       18.9322103615       19.6595007677  MEMB      80              0.0000000000
      8748        80  POPC      O14            46.1243641270       18.7346030631       19.9933021299  MEMB      80              0.0000000000
      8749        80  POPC      O12            47.5266689847       16.6809180561       20.1804249090  MEMB      80              0.0000000000
      8750        80  POPC      O11            47.3239360715       17.8230697956       17.8952187230  MEMB      80              0.0000000000
      8751        80  POPC      C1             46.3128228227       18.2084962883       17.0227404346  MEMB      80              0.0000000000
      8752        80  POPC      HA             46.2213960484       19.3123697098       16.9365689239  MEMB      80              0.0000000000
      8753        80  POPC      HB             45.3381336654       17.9813512995       17.5051379354  MEMB      80              0.0000000000
      8754        80  POPC      C2             46.3856001489       17.6036157121       15.6350874326  MEMB      80              0.0000000000
      8755        80  POPC      HS             46.4541396745       16.5035166965       15.7743905797  MEMB      80              0.0000000000
      8756        80  POPC      O21            47.5710656680       18.1485488523       15.0150397670  MEMB      80              0.0000000000
      8757        80  POPC      C21            48.4956343336       17.1686150934       14.7388666911  MEMB      80              0.0000000000
      8758        80  POPC      O22            48.4151876055       15.9915529366       15.0560038473  MEMB      80              0.0000000000
      8759        80  POPC      C22            49.8075158025       17.7266125754       14.1716038366  MEMB      80              0.0000000000
      8760        80  POPC      H2R            50.6116928863       17.6172588617       14.9303274353  MEMB      80              0.0000000000
      8761        80  POPC      H2S            49.6132237122       18.7925176748       13.9258027107  MEMB      80              0.0000000000
      8762        80  POPC      C3             45.1205825413       17.9665528204       14.7566033750  MEMB      80              0.0000000000
      8763        80  POPC      HX             44.9307631397       19.0555698287       14.6455555033  MEMB      80              0.0000000000
      8764        80  POPC      HY             44.2677178174       17.6663916933       15.4022396283  MEMB      80              0.0000000000
      8765        80  POPC      O31            45.0336641398       17.2418869557       13.5260215266  MEMB      80              0.0000000000
      8766        80  POPC      C31            45.6583836076       17.8948562242       12.5523170170  MEMB      80              0.0000000000
      8767        80  POPC      O32            45.9418029394       19.0833496879       12.4456269437  MEMB      80              0.0000000000
      8768        80  POPC      C32            46.0729982004       16.8581881859       11.5598477138  MEMB      80              0.0000000000
      8769        80  POPC      H2X            45.1421526725       16.3814948088       11.1848666015  MEMB      80              0.0000000000
      8770        80  POPC      H2Y            46.6453797830       16.0414551773       12.0493860266  MEMB      80              0.0000000000
      8771        80  POPC      C23            50.3598825368       16.8262883259       13.0319734657  MEMB      80              0.0000000000
      8772        80  POPC      H3R            49.8166116978       16.9908082146       12.0769283136  MEMB      80              0.0000000000
      8773        80  POPC      H3S            50.2808537069       15.7394882688       13.2486319669  MEMB      80              0.0000000000
      8774        80  POPC      C24            51.8795380884       17.1453714617       12.7734382624  MEMB      80              0.0000000000
      8775        80  POPC      H4R            52.4316169708       17.4633557184       13.6836120999  MEMB      80              0.0000000000
      8776        80  POPC      H4S            51.8732722151       18.0788765167       12.1710679567  MEMB      80              0.0000000000
      8777        80  POPC      C25            52.6077776926       16.0762115476       11.8305471051  MEMB      80              0.0000000000
      8778        80  POPC      H5R            52.8540634742       15.1648030723       12.4162080538  MEMB      80              0.0000000000
      8779        80  POPC      H5S            53.6086749637       16.4363249529       11.5098538276  MEMB      80              0.0000000000
      8780        80  POPC      C26            51.8234035932       15.8577470326       10.5492832506  MEMB      80              0.0000000000
      8781        80  POPC      H6R            50.7290526092       15.8594799847       10.7408920932  MEMB      80              0.0000000000
      8782        80  POPC      H6S            52.1329106224       14.8649319450       10.1583296225  MEMB      80              0.0000000000
      8783        80  POPC      C27            52.0741856300       16.8841400826        9.3914613087  MEMB      80              0.0000000000
      8784        80  POPC      H7R            53.1247002715       16.9365649917        9.0337015139  MEMB      80              0.0000000000
      8785        80  POPC      H7S            51.7466352455       17.8860684174        9.7424189021  MEMB      80              0.0000000000
      8786        80  POPC      C28            51.2453486514       16.3661335543        8.2110441733  MEMB      80              0.0000000000
      8787        80  POPC      H8R            50.2067493405       16.2193757716        8.5772341391  MEMB      80              0.0000000000
      8788        80  POPC      H8S            51.4657888763       15.4060035952        7.6973543798  MEMB      80              0.0000000000
      8789        80  POPC      C29            51.0124336596       17.4283284333        7.1619399135  MEMB      80              0.0000000000
      8790        80  POPC      H91            50.5738320213       18.2979201692        7.6732512496  MEMB      80              0.0000000000
      8791        80  POPC      C210           51.3178466975       17.3108328651        5.7896076934  MEMB      80              0.0000000000
      8792        80  POPC      H101           50.7403574840       18.0832732144        5.2606069849  MEMB      80              0.0000000000
      8793        80  POPC      C211           51.8531533833       16.0742147259        5.1011785007  MEMB      80              0.0000000000
      8794        80  POPC      H11R           51.3971009775       15.1143393510        5.4251787711  MEMB      80              0.0000000000
      8795        80  POPC      H11S           52.9461405209       16.0365882342        5.2968417784  MEMB      80              0.0000000000
      8796        80  POPC      C212           51.9193296867       16.2929447868        3.5803662690  MEMB      80              0.0000000000
      8797        80  POPC      H12R           52.4934057836       15.4139241848        3.2169373958  MEMB      80              0.0000000000
      8798        80  POPC      H12S           52.4560362130       17.2128211187        3.2639901900  MEMB      80              0.0000000000
      8799        80  POPC      C213           50.5789630576       16.3683368279        2.8274300874  MEMB      80              0.0000000000
      8800        80  POPC      H13R           50.7817671010       16.3611816358        1.7351193244  MEMB      80              0.0000000000
      8801        80  POPC      H13S           50.0204106405       17.2935460549        3.0849713186  MEMB      80              0.0000000000
      8802        80  POPC      C214           49.7285229049       15.0974574899        3.0828641015  MEMB      80              0.0000000000
      8803        80  POPC      H14R           48.9861613063       15.3496359335        3.8700276512  MEMB      80              0.0000000000
      8804        80  POPC      H14S           50.4081126600       14.2765496814        3.3968527077  MEMB      80              0.0000000000
      8805        80  POPC      C215           48.8456308963       14.4746766413        1.9957057048  MEMB      80              0.0000000000
      8806        80  POPC      H15R           49.5311528052       14.0598526312        1.2260944736  MEMB      80              0.0000000000
      8807        80  POPC      H15S           48.2871349466       15.3225864071        1.5446478773  MEMB      80              0.0000000000
      8808        80  POPC      C216           47.8062340350       13.4786742418        2.5220169592  MEMB      80              0.0000000000
      8809        80  POPC      H16R           47.2364439245       13.9811296866        3.3326936945  MEMB      80              0.0000000000
      8810        80  POPC      H16S           48.3960776888       12.6695579434        3.0034058069  MEMB      80              0.0000000000
      8811        80  POPC      C217           46.8246628759       12.8811788315        1.3990046567  MEMB      80              0.0000000000
      8812        80  POPC      H17R           46.3042563510       13.7782275955        1.0005048887  MEMB      80              0.0000000000
      8813        80  POPC      H17S           46.1726858536       12.1957763024        1.9816447972  MEMB      80              0.0000000000
      8814        80  POPC      C218           47.5580896242       12.1646464868        0.2560780377  MEMB      80              0.0000000000
      8815        80  POPC      H18R           47.7644311554       11.1547031649        0.6705144322  MEMB      80              0.0000000000
      8816        80  POPC      H18S           48.5233152266       12.6667230411        0.0311771918  MEMB      80              0.0000000000
      8817        80  POPC      H18T           46.8261347907       12.1264610345       -0.5788505883  MEMB      80              0.0000000000
      8818        80  POPC      C33            46.8758132503       17.3830391966       10.3956944043  MEMB      80              0.0000000000
      8819        80  POPC      H3X            47.7286970330       17.9099602268       10.8745102408  MEMB      80              0.0000000000
      8820        80  POPC      H3Y            46.3942342291       18.2494135531        9.8938995582  MEMB      80              0.0000000000
      8821        80  POPC      C34            47.4375018686       16.3071624402        9.4931248279  MEMB      80              0.0000000000
      8822        80  POPC      H4X            47.7609532278       15.4395885899       10.1071409994  MEMB      80              0.0000000000
      8823        80  POPC      H4Y            48.1376989398       16.7743730008        8.7680316972  MEMB      80              0.0000000000
      8824        80  POPC      C35            46.4062677719       15.6184706795        8.5263801864  MEMB      80              0.0000000000
      8825        80  POPC      H5X            45.8094795715       14.8638993270        9.0820654623  MEMB      80              0.0000000000
      8826        80  POPC      H5Y            46.9160341445       15.1259559982        7.6708752254  MEMB      80              0.0000000000
      8827        80  POPC      C36            45.4140301748       16.5954319295        7.8327657980  MEMB      80              0.0000000000
      8828        80  POPC      H6X            45.8672285041       17.5522766818        7.4960457596  MEMB      80              0.0000000000
      8829        80  POPC      H6Y            44.5764447703       16.8596927516        8.5131612648  MEMB      80              0.0000000000
      8830        80  POPC      C37            44.5374515141       16.0876837997        6.6472321726  MEMB      80              0.0000000000
      8831        80  POPC      H7X            43.6878674357       16.7516950848        6.3796205662  MEMB      80              0.0000000000
      8832        80  POPC      H7Y            44.0544902579       15.1367935286        6.9584829333  MEMB      80              0.0000000000
      8833        80  POPC      C38            45.3939444728       15.5863037526        5.4465626773  MEMB      80              0.0000000000
      8834        80  POPC      H8X            44.6255608884       15.1147542914        4.7972954376  MEMB      80              0.0000000000
      8835        80  POPC      H8Y            46.1151084880       14.7982494321        5.7518726281  MEMB      80              0.0000000000
      8836        80  POPC      C39            46.0120942859       16.7107203156        4.5952769319  MEMB      80              0.0000000000
      8837        80  POPC      H9X            46.5178667927       16.2568446215        3.7163502876  MEMB      80              0.0000000000
      8838        80  POPC      H9Y            46.7923632466       17.2332988942        5.1889203773  MEMB      80              0.0000000000
      8839        80  POPC      C310           45.0295362240       17.7981951329        4.0261435766  MEMB      80              0.0000000000
      8840        80  POPC      H10X           44.6859096558       18.4976137952        4.8180116387  MEMB      80              0.0000000000
      8841        80  POPC      H10Y           44.1851642004       17.2338430928        3.5757396589  MEMB      80              0.0000000000
      8842        80  POPC      C311           45.5222457028       18.4189314590        2.8222791909  MEMB      80              0.0000000000
      8843        80  POPC      H11X           44.6813439955       19.1113075571        2.6036009568  MEMB      80              0.0000000000
      8844        80  POPC      H11Y           45.5694871372       17.7842412442        1.9116423896  MEMB      80              0.0000000000
      8845        80  POPC      C312           46.8876553837       19.1634238373        2.8621000070  MEMB      80              0.0000000000
      8846        80  POPC      H12X           47.7238716089       18.4319436149        2.8620761824  MEMB      80              0.0000000000
      8847        80  POPC      H12Y           47.0854362560       19.7422224881        3.7895676755  MEMB      80              0.0000000000
      8848        80  POPC      C313           47.1154112180       20.1094216812        1.6102412470  MEMB      80              0.0000000000
      8849        80  POPC      H13X           48.0751477886       20.6666311036        1.6626266373  MEMB      80              0.0000000000
      8850        80  POPC      H13Y           46.2413782697       20.7947424476        1.5833552333  MEMB      80              0.0000000000
      8851        80  POPC      C314           47.0168241081       19.3792176867        0.1904558827  MEMB      80              0.0000000000
      8852        80  POPC      H14X           47.0816264562       20.0899647276       -0.6609892068  MEMB      80              0.0000000000
      8853        80  POPC      H14Y           45.9973257117       18.9381064258        0.2095575667  MEMB      80              0.0000000000
      8854        80  POPC      C315           47.9982167411       18.1350083550        0.0565685585  MEMB      80              0.0000000000
      8855        80  POPC      H15X           47.8064537052       17.4607528833        0.9185021944  MEMB      80              0.0000000000
      8856        80  POPC      H15Y           48.9914413687       18.6324482607        0.0760402018  MEMB      80              0.0000000000
      8857        80  POPC      C316           47.6671827556       17.4701479896       -1.2524852680  MEMB      80              0.0000000000
      8858        80  POPC      H16X           46.6291740549       17.0847267409       -1.1613266500  MEMB      80              0.0000000000
      8859        80  POPC      H16Y           48.3000432857       16.6049559525       -1.5444629540  MEMB      80              0.0000000000
      8860        80  POPC      H16Z           47.6794046090       18.2151614081       -2.0765762653  MEMB      80              0.0000000000
      8861        81  POPC      N             -47.3673665349      -16.2142378380       20.2382576279  MEMB      81              0.0000000000
      8862        81  POPC      C12           -47.5842339398      -16.2298275459       18.6864442098  MEMB      81              0.0000000000
      8863        81  POPC      H12A          -47.1453063501      -17.1627370166       18.3648505196  MEMB      81              0.0000000000
      8864        81  POPC      H12B          -47.2029384516      -15.3083249143       18.2719003472  MEMB      81              0.0000000000
      8865        81  POPC      C13           -47.6093542512      -14.8489802744       20.8069624634  MEMB      81              0.0000000000
      8866        81  POPC      H13A          -47.2270460793      -14.0332361190       20.2113099901  MEMB      81              0.0000000000
      8867        81  POPC      H13B          -48.6624272839      -14.8066825267       21.0428607543  MEMB      81              0.0000000000
      8868        81  POPC      H13C          -47.0217232581      -14.7165414049       21.7033717353  MEMB      81              0.0000000000
      8869        81  POPC      C14           -48.1374923350      -17.2608097283       20.9317668269  MEMB      81              0.0000000000
      8870        81  POPC      H14A          -49.1754900850      -17.1771668024       20.6454725471  MEMB      81              0.0000000000
      8871        81  POPC      H14B          -47.7166290206      -18.1730983904       20.5355304404  MEMB      81              0.0000000000
      8872        81  POPC      H14C          -48.0501444890      -17.3244439887       22.0063463120  MEMB      81              0.0000000000
      8873        81  POPC      C15           -45.8882178857      -16.5162044306       20.4442792556  MEMB      81              0.0000000000
      8874        81  POPC      H15A          -45.6113375407      -16.0358467375       21.3710983580  MEMB      81              0.0000000000
      8875        81  POPC      H15B          -45.3593851056      -16.1926592609       19.5599408127  MEMB      81              0.0000000000
      8876        81  POPC      H15C          -45.7457341462      -17.5756718247       20.5979915201  MEMB      81              0.0000000000
      8877        81  POPC      C11           -49.0673806295      -16.1671491363       18.2541727092  MEMB      81              0.0000000000
      8878        81  POPC      H11A          -49.6654219138      -17.0529102300       18.5576438219  MEMB      81              0.0000000000
      8879        81  POPC      H11B          -49.0871447603      -16.2781993832       17.1489133381  MEMB      81              0.0000000000
      8880        81  POPC      P             -49.9324665799      -13.7487347392       17.9645282924  MEMB      81              0.0000000000
      8881        81  POPC      O13           -48.5943704255      -13.3082286158       17.5086129640  MEMB      81              0.0000000000
      8882        81  POPC      O14           -50.7265003074      -12.7729750935       18.7257214265  MEMB      81              0.0000000000
      8883        81  POPC      O12           -49.8040701635      -15.0758914585       18.7703705302  MEMB      81              0.0000000000
      8884        81  POPC      O11           -50.6893282523      -14.1070682364       16.6688836942  MEMB      81              0.0000000000
      8885        81  POPC      C1            -51.8647105183      -15.0203257619       16.8169347940  MEMB      81              0.0000000000
      8886        81  POPC      HA            -52.6485990715      -14.4266939640       17.3340815529  MEMB      81              0.0000000000
      8887        81  POPC      HB            -51.6883894801      -15.9507362289       17.3979411192  MEMB      81              0.0000000000
      8888        81  POPC      C2            -52.5734598804      -15.2414855256       15.4567698342  MEMB      81              0.0000000000
      8889        81  POPC      HS            -53.2497399720      -16.1175733098       15.5539111287  MEMB      81              0.0000000000
      8890        81  POPC      O21           -51.5980742818      -15.3970829080       14.4428980525  MEMB      81              0.0000000000
      8891        81  POPC      C21           -50.8510429891      -16.5009488714       14.5443840514  MEMB      81              0.0000000000
      8892        81  POPC      O22           -51.0376725492      -17.4906619882       15.2203443560  MEMB      81              0.0000000000
      8893        81  POPC      C22           -49.8396406129      -16.4989620906       13.4376502986  MEMB      81              0.0000000000
      8894        81  POPC      H2R           -49.3416229759      -15.5062214706       13.4099787017  MEMB      81              0.0000000000
      8895        81  POPC      H2S           -50.2740209013      -16.5156507406       12.4152237054  MEMB      81              0.0000000000
      8896        81  POPC      C3            -53.4678573972      -13.9652800259       15.1181443689  MEMB      81              0.0000000000
      8897        81  POPC      HX            -53.1449281996      -12.9819949198       15.5221100331  MEMB      81              0.0000000000
      8898        81  POPC      HY            -54.4077748669      -14.1245252459       15.6886854166  MEMB      81              0.0000000000
      8899        81  POPC      O31           -53.8066339746      -13.9249500574       13.7912800389  MEMB      81              0.0000000000
      8900        81  POPC      C31           -53.0580972873      -13.1646969375       12.9645233532  MEMB      81              0.0000000000
      8901        81  POPC      O32           -52.0290633806      -12.6026328775       13.2539085107  MEMB      81              0.0000000000
      8902        81  POPC      C32           -53.5915197323      -13.5129267483       11.5194609683  MEMB      81              0.0000000000
      8903        81  POPC      H2X           -54.6257747070      -13.1447525477       11.3489187271  MEMB      81              0.0000000000
      8904        81  POPC      H2Y           -53.5179736838      -14.6038239638       11.3223427843  MEMB      81              0.0000000000
      8905        81  POPC      C23           -48.8120138992      -17.6071611877       13.5432546127  MEMB      81              0.0000000000
      8906        81  POPC      H3R           -49.3095863924      -18.5895137626       13.6906514775  MEMB      81              0.0000000000
      8907        81  POPC      H3S           -48.2083355757      -17.3688548503       14.4449774865  MEMB      81              0.0000000000
      8908        81  POPC      C24           -47.8626431880      -17.6600078393       12.3216442631  MEMB      81              0.0000000000
      8909        81  POPC      H4R           -47.1342194199      -18.4886354365       12.4523968955  MEMB      81              0.0000000000
      8910        81  POPC      H4S           -47.2797270426      -16.7144595948       12.3000042172  MEMB      81              0.0000000000
      8911        81  POPC      C25           -48.5531984224      -18.0549393641       11.0434498470  MEMB      81              0.0000000000
      8912        81  POPC      H5R           -49.1038891366      -17.1418259838       10.7315448702  MEMB      81              0.0000000000
      8913        81  POPC      H5S           -49.3072139877      -18.8504501201       11.2249555540  MEMB      81              0.0000000000
      8914        81  POPC      C26           -47.5253528775      -18.3937495580        9.9434601487  MEMB      81              0.0000000000
      8915        81  POPC      H6R           -47.1808529916      -19.4480982705       10.0066189499  MEMB      81              0.0000000000
      8916        81  POPC      H6S           -46.6086860222      -17.7792222320       10.0715186507  MEMB      81              0.0000000000
      8917        81  POPC      C27           -48.0471285691      -18.2801477145        8.4656478267  MEMB      81              0.0000000000
      8918        81  POPC      H7R           -48.2621199782      -17.2191568092        8.2158517523  MEMB      81              0.0000000000
      8919        81  POPC      H7S           -48.8972488079      -18.9917765450        8.3935299379  MEMB      81              0.0000000000
      8920        81  POPC      C28           -47.0736279466      -18.8142290167        7.3455318173  MEMB      81              0.0000000000
      8921        81  POPC      H8R           -47.6375127600      -18.5569766412        6.4234814770  MEMB      81              0.0000000000
      8922        81  POPC      H8S           -46.9389308410      -19.9167530828        7.3206685250  MEMB      81              0.0000000000
      8923        81  POPC      C29           -45.6843435426      -18.3283190758        7.2079395628  MEMB      81              0.0000000000
      8924        81  POPC      H91           -44.9000305847      -19.0053572740        7.5773606105  MEMB      81              0.0000000000
      8925        81  POPC      C210          -45.2825689542      -17.1357946678        6.8127031792  MEMB      81              0.0000000000
      8926        81  POPC      H101          -44.2239492773      -16.8899312923        6.6427742686  MEMB      81              0.0000000000
      8927        81  POPC      C211          -46.2549979137      -16.0279703757        6.3832517716  MEMB      81              0.0000000000
      8928        81  POPC      H11R          -46.3776136646      -15.4931347165        7.3492933701  MEMB      81              0.0000000000
      8929        81  POPC      H11S          -47.2731732672      -16.4687367995        6.3252437648  MEMB      81              0.0000000000
      8930        81  POPC      C212          -45.7768215113      -15.3857305898        5.0673316200  MEMB      81              0.0000000000
      8931        81  POPC      H12R          -45.8641930537      -16.1854672766        4.3011011018  MEMB      81              0.0000000000
      8932        81  POPC      H12S          -44.7458022548      -14.9879164500        5.1816302273  MEMB      81              0.0000000000
      8933        81  POPC      C213          -46.6700081858      -14.3405625544        4.4786342810  MEMB      81              0.0000000000
      8934        81  POPC      H13R          -46.6392390690      -13.5207060736        5.2277733748  MEMB      81              0.0000000000
      8935        81  POPC      H13S          -47.7174384736      -14.7095821557        4.5108094905  MEMB      81              0.0000000000
      8936        81  POPC      C214          -46.2580474631      -13.9421760010        3.0205801551  MEMB      81              0.0000000000
      8937        81  POPC      H14R          -46.5835530219      -14.7633663263        2.3467737934  MEMB      81              0.0000000000
      8938        81  POPC      H14S          -45.1752263359      -13.7706802256        2.8405548419  MEMB      81              0.0000000000
      8939        81  POPC      C215          -46.9827039161      -12.6289319165        2.5370404388  MEMB      81              0.0000000000
      8940        81  POPC      H15R          -47.9012783923      -12.9994757420        2.0338112955  MEMB      81              0.0000000000
      8941        81  POPC      H15S          -46.4594393199      -12.3262071023        1.6049075823  MEMB      81              0.0000000000
      8942        81  POPC      C216          -47.1256995494      -11.5493189670        3.5775724817  MEMB      81              0.0000000000
      8943        81  POPC      H16R          -46.1553417490      -11.0401645205        3.7605704863  MEMB      81              0.0000000000
      8944        81  POPC      H16S          -47.5618561823      -11.9320544185        4.5249914377  MEMB      81              0.0000000000
      8945        81  POPC      C217          -48.1403916038      -10.4735021778        3.1873198383  MEMB      81              0.0000000000
      8946        81  POPC      H17R          -47.9419516282       -9.6913164263        3.9509480869  MEMB      81              0.0000000000
      8947        81  POPC      H17S          -49.1916348236      -10.8329186990        3.1926765912  MEMB      81              0.0000000000
      8948        81  POPC      C218          -48.0435570503       -9.7852724551        1.8131102345  MEMB      81              0.0000000000
      8949        81  POPC      H18R          -47.9139392628      -10.5066502854        0.9781648305  MEMB      81              0.0000000000
      8950        81  POPC      H18S          -47.1665394008       -9.1145252974        1.9366386380  MEMB      81              0.0000000000
      8951        81  POPC      H18T          -48.9102003702       -9.1193772718        1.6135260284  MEMB      81              0.0000000000
      8952        81  POPC      C33           -52.7109020240      -12.7360719663       10.4793545931  MEMB      81              0.0000000000
      8953        81  POPC      H3X           -51.6736774949      -13.1237419816       10.5698995768  MEMB      81              0.0000000000
      8954        81  POPC      H3Y           -52.6407483992      -11.6484129094       10.6947550142  MEMB      81              0.0000000000
      8955        81  POPC      C34           -53.1117024855      -12.9544948917        8.9962187715  MEMB      81              0.0000000000
      8956        81  POPC      H4X           -53.4102566901      -11.9648563051        8.5890305021  MEMB      81              0.0000000000
      8957        81  POPC      H4Y           -53.9875087623      -13.6284655888        8.8819898949  MEMB      81              0.0000000000
      8958        81  POPC      C35           -51.9494222926      -13.5132749468        8.1292487360  MEMB      81              0.0000000000
      8959        81  POPC      H5X           -51.4720504965      -14.3221807221        8.7226358855  MEMB      81              0.0000000000
      8960        81  POPC      H5Y           -51.2054525174      -12.6966249851        8.2472010683  MEMB      81              0.0000000000
      8961        81  POPC      C36           -52.3694060182      -13.9301489374        6.7350919514  MEMB      81              0.0000000000
      8962        81  POPC      H6X           -52.9981515710      -13.0875814704        6.3758144937  MEMB      81              0.0000000000
      8963        81  POPC      H6Y           -53.1395686271      -14.7241343515        6.8388116888  MEMB      81              0.0000000000
      8964        81  POPC      C37           -51.2889345207      -14.3525781676        5.7209164801  MEMB      81              0.0000000000
      8965        81  POPC      H7X           -50.6742372584      -13.4329095134        5.6175829038  MEMB      81              0.0000000000
      8966        81  POPC      H7Y           -51.7444953908      -14.5616256323        4.7294105007  MEMB      81              0.0000000000
      8967        81  POPC      C38           -50.4441138400      -15.6297005304        5.9817499209  MEMB      81              0.0000000000
      8968        81  POPC      H8X           -49.7450249851      -15.6725398686        6.8441656821  MEMB      81              0.0000000000
      8969        81  POPC      H8Y           -49.9026185108      -15.7550729715        5.0197797247  MEMB      81              0.0000000000
      8970        81  POPC      C39           -51.3396206594      -16.8869443928        6.0163773567  MEMB      81              0.0000000000
      8971        81  POPC      H9X           -52.0880265479      -16.8402229027        6.8361503981  MEMB      81              0.0000000000
      8972        81  POPC      H9Y           -50.7292280508      -17.7910454805        6.2269559266  MEMB      81              0.0000000000
      8973        81  POPC      C310          -52.2296500089      -17.1944028630        4.7534709674  MEMB      81              0.0000000000
      8974        81  POPC      H10X          -53.0204928438      -16.4216583924        4.6450533465  MEMB      81              0.0000000000
      8975        81  POPC      H10Y          -52.7359035069      -18.1515641894        5.0022084924  MEMB      81              0.0000000000
      8976        81  POPC      C311          -51.5364517243      -17.4196062565        3.4139067796  MEMB      81              0.0000000000
      8977        81  POPC      H11X          -50.9836456748      -18.3813443938        3.4754391582  MEMB      81              0.0000000000
      8978        81  POPC      H11Y          -50.7952813785      -16.5960290441        3.3320062891  MEMB      81              0.0000000000
      8979        81  POPC      C312          -52.5117217207      -17.3666673707        2.2387457107  MEMB      81              0.0000000000
      8980        81  POPC      H12X          -52.6922004519      -16.2989083553        1.9904724177  MEMB      81              0.0000000000
      8981        81  POPC      H12Y          -53.4919795562      -17.8091834492        2.5173025889  MEMB      81              0.0000000000
      8982        81  POPC      C313          -51.9531190006      -17.9379473760        0.9333137981  MEMB      81              0.0000000000
      8983        81  POPC      H13X          -52.7197681541      -17.7984104575        0.1414167013  MEMB      81              0.0000000000
      8984        81  POPC      H13Y          -51.8449912243      -19.0434557230        0.9552225643  MEMB      81              0.0000000000
      8985        81  POPC      C314          -50.7117046792      -17.1962532557        0.5128635709  MEMB      81              0.0000000000
      8986        81  POPC      H14X          -50.0929458741      -17.8483376173       -0.1400100280  MEMB      81              0.0000000000
      8987        81  POPC      H14Y          -50.1859488840      -16.8206547242        1.4166496893  MEMB      81              0.0000000000
      8988        81  POPC      C315          -51.0121197105      -15.8478903570       -0.2590063625  MEMB      81              0.0000000000
      8989        81  POPC      H15X          -51.1042952289      -15.1009319445        0.5582320321  MEMB      81              0.0000000000
      8990        81  POPC      H15Y          -52.0014736781      -15.7917778533       -0.7613516094  MEMB      81              0.0000000000
      8991        81  POPC      C316          -49.8319531179      -15.3704619587       -1.1281513167  MEMB      81              0.0000000000
      8992        81  POPC      H16X          -49.4836947836      -16.2191631072       -1.7548438363  MEMB      81              0.0000000000
      8993        81  POPC      H16Y          -48.9959411266      -14.8699807650       -0.5943675640  MEMB      81              0.0000000000
      8994        81  POPC      H16Z          -50.3180851610      -14.6564094808       -1.8268098808  MEMB      81              0.0000000000
      8995        82  POPC      N             -14.5090510236       47.0113976158       19.9777553544  MEMB      82              0.0000000000
      8996        82  POPC      C12           -14.9838915034       47.1403133504       18.4950283620  MEMB      82              0.0000000000
      8997        82  POPC      H12A          -15.8549742165       46.5137613323       18.3723607532  MEMB      82              0.0000000000
      8998        82  POPC      H12B          -14.2031139068       46.5709901659       18.0126825735  MEMB      82              0.0000000000
      8999        82  POPC      C13           -13.2076852750       47.7795541066       20.1585025645  MEMB      82              0.0000000000
      9000        82  POPC      H13A          -13.3921297855       48.8074971180       19.8833420881  MEMB      82              0.0000000000
      9001        82  POPC      H13B          -12.8616570449       47.7516507296       21.1811881910  MEMB      82              0.0000000000
      9002        82  POPC      H13C          -12.4267315080       47.3797547947       19.5286839594  MEMB      82              0.0000000000
      9003        82  POPC      C14           -15.4950819568       47.5052048419       20.9695510616  MEMB      82              0.0000000000
      9004        82  POPC      H14A          -15.5651664891       48.5810278919       21.0335274756  MEMB      82              0.0000000000
      9005        82  POPC      H14B          -16.5033796372       47.2591012760       20.6709397243  MEMB      82              0.0000000000
      9006        82  POPC      H14C          -15.2615735452       47.0368473523       21.9142811721  MEMB      82              0.0000000000
      9007        82  POPC      C15           -14.3894609728       45.5143579670       20.0927261526  MEMB      82              0.0000000000
      9008        82  POPC      H15A          -14.0018131794       44.9952319864       19.2286441717  MEMB      82              0.0000000000
      9009        82  POPC      H15B          -15.3713966057       45.0793960861       20.2067904691  MEMB      82              0.0000000000
      9010        82  POPC      H15C          -13.8412661599       45.2638028317       20.9888870796  MEMB      82              0.0000000000
      9011        82  POPC      C11           -15.1860508050       48.5437144852       17.9047407718  MEMB      82              0.0000000000
      9012        82  POPC      H11A          -15.3853604321       48.4500487234       16.8157857354  MEMB      82              0.0000000000
      9013        82  POPC      H11B          -14.1843204434       49.0235688425       17.9291792978  MEMB      82              0.0000000000
      9014        82  POPC      P             -17.6680977468       49.1086858955       18.3197088987  MEMB      82              0.0000000000
      9015        82  POPC      O13           -18.2088491207       50.3052196656       17.6079174188  MEMB      82              0.0000000000
      9016        82  POPC      O14           -18.3059849606       48.6641728710       19.6046129644  MEMB      82              0.0000000000
      9017        82  POPC      O12           -16.0636404523       49.3723642825       18.5660987430  MEMB      82              0.0000000000
      9018        82  POPC      O11           -17.6679538047       47.9208898037       17.3033577349  MEMB      82              0.0000000000
      9019        82  POPC      C1            -18.7168795108       47.0188818017       17.0226712597  MEMB      82              0.0000000000
      9020        82  POPC      HA            -19.7340005801       47.4070343120       17.2443091530  MEMB      82              0.0000000000
      9021        82  POPC      HB            -18.5240095678       46.1421649085       17.6772625086  MEMB      82              0.0000000000
      9022        82  POPC      C2            -18.6365840834       46.3321889564       15.6072804685  MEMB      82              0.0000000000
      9023        82  POPC      HS            -19.4440086099       45.5729776100       15.5299201914  MEMB      82              0.0000000000
      9024        82  POPC      O21           -17.3636329622       45.7808197887       15.3864013792  MEMB      82              0.0000000000
      9025        82  POPC      C21           -17.0626237598       44.7091796237       16.0752314643  MEMB      82              0.0000000000
      9026        82  POPC      O22           -17.8573512889       43.9816251191       16.6793533056  MEMB      82              0.0000000000
      9027        82  POPC      C22           -15.5788814569       44.4593083325       16.0624920944  MEMB      82              0.0000000000
      9028        82  POPC      H2R           -15.4743206599       43.3868510919       15.7918930960  MEMB      82              0.0000000000
      9029        82  POPC      H2S           -15.2635905132       44.5751773128       17.1214949027  MEMB      82              0.0000000000
      9030        82  POPC      C3            -19.0296366337       47.2447600419       14.4723909311  MEMB      82              0.0000000000
      9031        82  POPC      HX            -20.1050066517       47.4954962357       14.5949953421  MEMB      82              0.0000000000
      9032        82  POPC      HY            -18.8624470732       46.7258143964       13.5043705903  MEMB      82              0.0000000000
      9033        82  POPC      O31           -18.2281973764       48.4144377406       14.5600607536  MEMB      82              0.0000000000
      9034        82  POPC      C31           -17.0455071161       48.4302909330       13.8237053756  MEMB      82              0.0000000000
      9035        82  POPC      O32           -16.5703282778       47.4140386330       13.3129709503  MEMB      82              0.0000000000
      9036        82  POPC      C32           -16.4825453529       49.8225206328       13.4915250851  MEMB      82              0.0000000000
      9037        82  POPC      H2X           -15.7141781547       49.6727104985       12.7031789470  MEMB      82              0.0000000000
      9038        82  POPC      H2Y           -15.9999644080       50.2719637391       14.3856380759  MEMB      82              0.0000000000
      9039        82  POPC      C23           -14.7123180389       45.3424069977       15.0205262654  MEMB      82              0.0000000000
      9040        82  POPC      H3R           -14.9489010954       46.4143892106       15.1914168100  MEMB      82              0.0000000000
      9041        82  POPC      H3S           -15.2534365923       45.1487531101       14.0697322870  MEMB      82              0.0000000000
      9042        82  POPC      C24           -13.2368053177       44.9575622181       14.8717559839  MEMB      82              0.0000000000
      9043        82  POPC      H4R           -13.2218969538       43.8795150296       14.6035901053  MEMB      82              0.0000000000
      9044        82  POPC      H4S           -12.6808354872       45.1607457199       15.8119341380  MEMB      82              0.0000000000
      9045        82  POPC      C25           -12.6176634672       45.8249509402       13.7627063841  MEMB      82              0.0000000000
      9046        82  POPC      H5R           -11.5593348231       45.5195925359       13.6177301031  MEMB      82              0.0000000000
      9047        82  POPC      H5S           -12.7038678686       46.9026789362       14.0184255410  MEMB      82              0.0000000000
      9048        82  POPC      C26           -13.3279153367       45.7228899203       12.3757948481  MEMB      82              0.0000000000
      9049        82  POPC      H6R           -12.9153821192       46.3811063108       11.5815096206  MEMB      82              0.0000000000
      9050        82  POPC      H6S           -14.4029290667       46.0011711449       12.4108133376  MEMB      82              0.0000000000
      9051        82  POPC      C27           -13.1967569012       44.2802726402       11.8587144136  MEMB      82              0.0000000000
      9052        82  POPC      H7R           -13.6741970097       43.6312403471       12.6236515920  MEMB      82              0.0000000000
      9053        82  POPC      H7S           -12.1133681184       44.0428165019       11.7938757718  MEMB      82              0.0000000000
      9054        82  POPC      C28           -13.6833569172       44.2121150090       10.3984380758  MEMB      82              0.0000000000
      9055        82  POPC      H8R           -13.4129106733       43.1662636715       10.1388701233  MEMB      82              0.0000000000
      9056        82  POPC      H8S           -13.0838507461       44.9463970052        9.8190049569  MEMB      82              0.0000000000
      9057        82  POPC      C29           -15.1572543340       44.4323335826       10.1880357394  MEMB      82              0.0000000000
      9058        82  POPC      H91           -15.7392175501       43.5837060717       10.5768156491  MEMB      82              0.0000000000
      9059        82  POPC      C210          -15.7661937893       45.3903197542        9.4087750927  MEMB      82              0.0000000000
      9060        82  POPC      H101          -16.8583202522       45.5123455371        9.4574521374  MEMB      82              0.0000000000
      9061        82  POPC      C211          -15.1059631870       46.5125866896        8.6446235265  MEMB      82              0.0000000000
      9062        82  POPC      H11R          -13.9989816631       46.4664915885        8.7270136142  MEMB      82              0.0000000000
      9063        82  POPC      H11S          -15.5173877908       47.5175086156        8.8795337251  MEMB      82              0.0000000000
      9064        82  POPC      C212          -15.4219561037       46.3593814941        7.0971524390  MEMB      82              0.0000000000
      9065        82  POPC      H12R          -15.0478137695       47.3002581136        6.6398889401  MEMB      82              0.0000000000
      9066        82  POPC      H12S          -16.4880606564       46.1135398431        6.9040103071  MEMB      82              0.0000000000
      9067        82  POPC      C213          -14.4886621539       45.2945889178        6.4344355735  MEMB      82              0.0000000000
      9068        82  POPC      H13R          -14.1008732502       44.4804730724        7.0834007393  MEMB      82              0.0000000000
      9069        82  POPC      H13S          -13.5163508491       45.7587220344        6.1633040211  MEMB      82              0.0000000000
      9070        82  POPC      C214          -15.1509711747       44.6619650939        5.1592372135  MEMB      82              0.0000000000
      9071        82  POPC      H14R          -15.5569494612       45.5098078459        4.5670670481  MEMB      82              0.0000000000
      9072        82  POPC      H14S          -15.9539131724       43.9860580248        5.5235921715  MEMB      82              0.0000000000
      9073        82  POPC      C215          -14.1680817828       43.8719777211        4.3163527837  MEMB      82              0.0000000000
      9074        82  POPC      H15R          -14.7354094646       43.3494135497        3.5167362598  MEMB      82              0.0000000000
      9075        82  POPC      H15S          -13.6412300946       43.0924305043        4.9071617376  MEMB      82              0.0000000000
      9076        82  POPC      C216          -12.8986542274       44.5847819201        3.7671181020  MEMB      82              0.0000000000
      9077        82  POPC      H16R          -12.4476794397       43.8256178135        3.0928678409  MEMB      82              0.0000000000
      9078        82  POPC      H16S          -12.2878953617       44.8158799191        4.6659438865  MEMB      82              0.0000000000
      9079        82  POPC      C217          -13.1826636938       45.7921035465        2.7641442275  MEMB      82              0.0000000000
      9080        82  POPC      H17R          -13.9151580936       46.4409187763        3.2902738315  MEMB      82              0.0000000000
      9081        82  POPC      H17S          -13.5567364979       45.3836193568        1.8010606728  MEMB      82              0.0000000000
      9082        82  POPC      C218          -12.0624135688       46.6447007427        2.3229402459  MEMB      82              0.0000000000
      9083        82  POPC      H18R          -12.2994137442       47.4328640556        1.5766489300  MEMB      82              0.0000000000
      9084        82  POPC      H18S          -11.2313373903       46.0383258885        1.9034847881  MEMB      82              0.0000000000
      9085        82  POPC      H18T          -11.5703679355       47.1411331170        3.1865174259  MEMB      82              0.0000000000
      9086        82  POPC      C33           -17.6374196738       50.8167442552       13.0263976869  MEMB      82              0.0000000000
      9087        82  POPC      H3X           -18.3645926771       50.9642356494       13.8533116381  MEMB      82              0.0000000000
      9088        82  POPC      H3Y           -18.2607187046       50.3217623887       12.2512767878  MEMB      82              0.0000000000
      9089        82  POPC      C34           -17.1830992372       52.1140184494       12.4182373573  MEMB      82              0.0000000000
      9090        82  POPC      H4X           -16.5769156885       52.6180330690       13.2010731952  MEMB      82              0.0000000000
      9091        82  POPC      H4Y           -18.0953345929       52.7136427010       12.2118437884  MEMB      82              0.0000000000
      9092        82  POPC      C35           -16.2178343020       52.0359774077       11.3006662341  MEMB      82              0.0000000000
      9093        82  POPC      H5X           -15.3290763654       51.4989376021       11.6956583287  MEMB      82              0.0000000000
      9094        82  POPC      H5Y           -15.8924939577       53.0612527115       11.0226645975  MEMB      82              0.0000000000
      9095        82  POPC      C36           -16.7772060183       51.3939258296        9.9938792109  MEMB      82              0.0000000000
      9096        82  POPC      H6X           -17.6059452606       52.0766140803        9.7084863681  MEMB      82              0.0000000000
      9097        82  POPC      H6Y           -17.1836637835       50.3963795998       10.2659354687  MEMB      82              0.0000000000
      9098        82  POPC      C37           -15.7737674459       51.2351072581        8.8027796801  MEMB      82              0.0000000000
      9099        82  POPC      H7X           -14.9145629656       50.5642740711        9.0174222998  MEMB      82              0.0000000000
      9100        82  POPC      H7Y           -15.3260152472       52.2066779005        8.5029634643  MEMB      82              0.0000000000
      9101        82  POPC      C38           -16.4038411331       50.7473761177        7.4870050480  MEMB      82              0.0000000000
      9102        82  POPC      H8X           -17.1375613899       49.9649586041        7.7764851292  MEMB      82              0.0000000000
      9103        82  POPC      H8Y           -15.6165839119       50.4064853726        6.7810733956  MEMB      82              0.0000000000
      9104        82  POPC      C39           -17.2027854437       51.7491462020        6.6687277479  MEMB      82              0.0000000000
      9105        82  POPC      H9X           -16.5412062870       52.6406709867        6.6260962119  MEMB      82              0.0000000000
      9106        82  POPC      H9Y           -18.0754869160       52.0936216155        7.2637486305  MEMB      82              0.0000000000
      9107        82  POPC      C310          -17.6505291195       51.2036285033        5.3602584645  MEMB      82              0.0000000000
      9108        82  POPC      H10X          -16.8200515101       50.9432994162        4.6697101944  MEMB      82              0.0000000000
      9109        82  POPC      H10Y          -18.1935758409       52.0468357039        4.8823219629  MEMB      82              0.0000000000
      9110        82  POPC      C311          -18.7176479330       50.1137926330        5.4342430651  MEMB      82              0.0000000000
      9111        82  POPC      H11X          -19.1366350384       50.0076892566        4.4107622012  MEMB      82              0.0000000000
      9112        82  POPC      H11Y          -19.5456103004       50.3535316891        6.1351880779  MEMB      82              0.0000000000
      9113        82  POPC      C312          -18.2314262941       48.6892622772        5.6987303108  MEMB      82              0.0000000000
      9114        82  POPC      H12X          -18.1281341000       48.5488927672        6.7959752015  MEMB      82              0.0000000000
      9115        82  POPC      H12Y          -17.2958112209       48.4647445667        5.1432687398  MEMB      82              0.0000000000
      9116        82  POPC      C313          -19.1946999829       47.6089530786        5.1355300721  MEMB      82              0.0000000000
      9117        82  POPC      H13X          -20.2335413362       47.9980711868        5.1964937528  MEMB      82              0.0000000000
      9118        82  POPC      H13Y          -19.2009022898       46.6685381281        5.7270561114  MEMB      82              0.0000000000
      9119        82  POPC      C314          -18.8608947192       47.2943334619        3.6490963473  MEMB      82              0.0000000000
      9120        82  POPC      H14X          -19.0401371048       48.2390242126        3.0925419166  MEMB      82              0.0000000000
      9121        82  POPC      H14Y          -19.7086945486       46.6726099568        3.2899081258  MEMB      82              0.0000000000
      9122        82  POPC      C315          -17.5228119379       46.6077535572        3.3493623516  MEMB      82              0.0000000000
      9123        82  POPC      H15X          -17.4303849644       45.6390790207        3.8855037052  MEMB      82              0.0000000000
      9124        82  POPC      H15Y          -16.7360365127       47.3147758987        3.6891041606  MEMB      82              0.0000000000
      9125        82  POPC      C316          -17.3100577772       46.1331999741        1.8929158406  MEMB      82              0.0000000000
      9126        82  POPC      H16X          -16.5230574984       45.3710192293        1.7084384514  MEMB      82              0.0000000000
      9127        82  POPC      H16Y          -16.9546132257       47.0199572582        1.3257819090  MEMB      82              0.0000000000
      9128        82  POPC      H16Z          -18.3086245758       45.8639982793        1.4870651264  MEMB      82              0.0000000000
      9129        83  POPC      N              36.6104017069       27.2742321661       18.1751561805  MEMB      83              0.0000000000
      9130        83  POPC      C12            37.2313047411       25.8775565211       17.9399020246  MEMB      83              0.0000000000
      9131        83  POPC      H12A           38.1784415690       26.0572652732       17.4530380256  MEMB      83              0.0000000000
      9132        83  POPC      H12B           36.6250258833       25.3787162647       17.1982928198  MEMB      83              0.0000000000
      9133        83  POPC      C13            37.4834555599       28.2133088584       19.0192460153  MEMB      83              0.0000000000
      9134        83  POPC      H13A           38.5176122665       28.1604841786       18.7124405783  MEMB      83              0.0000000000
      9135        83  POPC      H13B           37.1836626265       29.2320786968       18.8226950580  MEMB      83              0.0000000000
      9136        83  POPC      H13C           37.3625339413       27.9447020139       20.0582976389  MEMB      83              0.0000000000
      9137        83  POPC      C14            36.4607298549       27.8818392618       16.8132160772  MEMB      83              0.0000000000
      9138        83  POPC      H14A           35.7586193934       27.3743204599       16.1683395163  MEMB      83              0.0000000000
      9139        83  POPC      H14B           36.2146477700       28.9313973597       16.8785692712  MEMB      83              0.0000000000
      9140        83  POPC      H14C           37.3365989205       27.8530991553       16.1820049580  MEMB      83              0.0000000000
      9141        83  POPC      C15            35.2344197536       27.1519747983       18.8108511817  MEMB      83              0.0000000000
      9142        83  POPC      H15A           34.6459347790       26.5987756346       18.0938740831  MEMB      83              0.0000000000
      9143        83  POPC      H15B           34.6952897876       28.0877210339       18.8217090279  MEMB      83              0.0000000000
      9144        83  POPC      H15C           35.3022344504       26.6541366983       19.7668628955  MEMB      83              0.0000000000
      9145        83  POPC      C11            37.5346461319       24.8678847652       19.0502822823  MEMB      83              0.0000000000
      9146        83  POPC      H11A           37.8913854459       23.9002586300       18.6370537905  MEMB      83              0.0000000000
      9147        83  POPC      H11B           36.6164728325       24.5524596062       19.5904541944  MEMB      83              0.0000000000
      9148        83  POPC      P              40.0129584180       24.9724216139       19.9203684335  MEMB      83              0.0000000000
      9149        83  POPC      O13            40.2425174032       23.6820269800       20.5740244834  MEMB      83              0.0000000000
      9150        83  POPC      O14            40.8520658323       26.1526988784       20.3340128483  MEMB      83              0.0000000000
      9151        83  POPC      O12            38.4524131187       25.3737636278       19.9948995252  MEMB      83              0.0000000000
      9152        83  POPC      O11            40.1367688228       24.7701970746       18.3680409071  MEMB      83              0.0000000000
      9153        83  POPC      C1             41.4439274088       24.3170110078       18.0128469454  MEMB      83              0.0000000000
      9154        83  POPC      HA             41.7324001801       23.4088989861       18.5841938697  MEMB      83              0.0000000000
      9155        83  POPC      HB             42.1747136465       25.1274045122       18.2214974813  MEMB      83              0.0000000000
      9156        83  POPC      C2             41.5961319515       23.9046966154       16.4400283450  MEMB      83              0.0000000000
      9157        83  POPC      HS             42.6936071948       23.8335636285       16.2825185854  MEMB      83              0.0000000000
      9158        83  POPC      O21            41.0438250116       24.7368429865       15.5152402800  MEMB      83              0.0000000000
      9159        83  POPC      C21            41.6019318049       25.9650832574       15.3726164016  MEMB      83              0.0000000000
      9160        83  POPC      O22            42.6350798074       26.3324087805       15.9124643142  MEMB      83              0.0000000000
      9161        83  POPC      C22            40.7671019496       26.9179310333       14.5432996140  MEMB      83              0.0000000000
      9162        83  POPC      H2R            39.6682653156       26.7592695871       14.5846004010  MEMB      83              0.0000000000
      9163        83  POPC      H2S            41.0917771736       26.7455443237       13.4948770757  MEMB      83              0.0000000000
      9164        83  POPC      C3             41.0557122597       22.5175594295       16.1568235887  MEMB      83              0.0000000000
      9165        83  POPC      HX             41.3587189127       21.7964086487       16.9457782666  MEMB      83              0.0000000000
      9166        83  POPC      HY             41.3719249015       22.2801354548       15.1185747946  MEMB      83              0.0000000000
      9167        83  POPC      O31            39.6226393172       22.5482485270       16.2388991648  MEMB      83              0.0000000000
      9168        83  POPC      C31            38.8988549233       21.4600255398       15.8687156181  MEMB      83              0.0000000000
      9169        83  POPC      O32            39.4687939548       20.4598369210       15.6151500983  MEMB      83              0.0000000000
      9170        83  POPC      C32            37.4126254088       21.6087608630       16.2319527045  MEMB      83              0.0000000000
      9171        83  POPC      H2X            37.3130415101       21.7672360920       17.3270735089  MEMB      83              0.0000000000
      9172        83  POPC      H2Y            36.8546853056       20.6611182821       16.0738446760  MEMB      83              0.0000000000
      9173        83  POPC      C23            40.9526025289       28.3532519251       15.0063743393  MEMB      83              0.0000000000
      9174        83  POPC      H3R            42.0016638558       28.6899247790       15.1493520894  MEMB      83              0.0000000000
      9175        83  POPC      H3S            40.4018669528       28.4342623379       15.9678567984  MEMB      83              0.0000000000
      9176        83  POPC      C24            40.3992028518       29.4531494751       14.0888918521  MEMB      83              0.0000000000
      9177        83  POPC      H4R            40.5117546479       30.4416877266       14.5833067681  MEMB      83              0.0000000000
      9178        83  POPC      H4S            39.2955983892       29.3251728615       14.0885946857  MEMB      83              0.0000000000
      9179        83  POPC      C25            40.9426796098       29.6729403542       12.6693457498  MEMB      83              0.0000000000
      9180        83  POPC      H5R            41.9529364141       30.1220436500       12.7789272218  MEMB      83              0.0000000000
      9181        83  POPC      H5S            40.4449253017       30.6251262801       12.3866746880  MEMB      83              0.0000000000
      9182        83  POPC      C26            40.7494904097       28.5951881111       11.6156957397  MEMB      83              0.0000000000
      9183        83  POPC      H6R            39.7626522723       28.0851413097       11.6336933029  MEMB      83              0.0000000000
      9184        83  POPC      H6S            41.5254375436       27.8188982441       11.7877455764  MEMB      83              0.0000000000
      9185        83  POPC      C27            40.9356545833       29.0602025767       10.1888089569  MEMB      83              0.0000000000
      9186        83  POPC      H7R            41.9680436476       29.4318539610       10.0145417710  MEMB      83              0.0000000000
      9187        83  POPC      H7S            40.2418124372       29.9210438578       10.0799222896  MEMB      83              0.0000000000
      9188        83  POPC      C28            40.6725892034       27.9434026034        9.1096060480  MEMB      83              0.0000000000
      9189        83  POPC      H8R            40.5536080170       28.4207012021        8.1134383367  MEMB      83              0.0000000000
      9190        83  POPC      H8S            39.6608213234       27.4912877138        9.1885942138  MEMB      83              0.0000000000
      9191        83  POPC      C29            41.8273607998       26.9348502413        9.0180584075  MEMB      83              0.0000000000
      9192        83  POPC      H91            42.3651746337       26.6752677193        9.9418407902  MEMB      83              0.0000000000
      9193        83  POPC      C210           42.3730062492       26.4259947853        7.9161440183  MEMB      83              0.0000000000
      9194        83  POPC      H101           43.1999290493       25.7044013259        7.9903166995  MEMB      83              0.0000000000
      9195        83  POPC      C211           41.9193808731       26.7958611406        6.4921892108  MEMB      83              0.0000000000
      9196        83  POPC      H11R           41.1947888546       27.6353812879        6.5592214470  MEMB      83              0.0000000000
      9197        83  POPC      H11S           41.3851934616       25.9786745907        5.9619334334  MEMB      83              0.0000000000
      9198        83  POPC      C212           42.8735902102       27.4134289547        5.4163704469  MEMB      83              0.0000000000
      9199        83  POPC      H12R           43.5951400968       26.6574289368        5.0393413075  MEMB      83              0.0000000000
      9200        83  POPC      H12S           43.3766451935       28.1899681620        6.0313854498  MEMB      83              0.0000000000
      9201        83  POPC      C213           42.3049758311       28.2283454705        4.2610980967  MEMB      83              0.0000000000
      9202        83  POPC      H13R           41.7262276590       29.1561843265        4.4572780657  MEMB      83              0.0000000000
      9203        83  POPC      H13S           41.6448674146       27.4955137630        3.7496921782  MEMB      83              0.0000000000
      9204        83  POPC      C214           43.4287733275       28.5867770842        3.2358358812  MEMB      83              0.0000000000
      9205        83  POPC      H14R           44.3871184933       28.6346589318        3.7958380669  MEMB      83              0.0000000000
      9206        83  POPC      H14S           43.2049815454       29.6013325511        2.8422434717  MEMB      83              0.0000000000
      9207        83  POPC      C215           43.3924376918       27.5010210975        2.0737952072  MEMB      83              0.0000000000
      9208        83  POPC      H15R           43.4672645135       26.4285784558        2.3541319827  MEMB      83              0.0000000000
      9209        83  POPC      H15S           44.4308219540       27.7014848681        1.7333644693  MEMB      83              0.0000000000
      9210        83  POPC      C216           42.3308856047       27.7882449742        1.0034219465  MEMB      83              0.0000000000
      9211        83  POPC      H16R           42.4548163621       28.8369305198        0.6581370994  MEMB      83              0.0000000000
      9212        83  POPC      H16S           41.3239020742       27.7333149576        1.4695633592  MEMB      83              0.0000000000
      9213        83  POPC      C217           42.4607055659       26.7491186039       -0.1205898956  MEMB      83              0.0000000000
      9214        83  POPC      H17R           42.0820350329       25.7560452977        0.2030374865  MEMB      83              0.0000000000
      9215        83  POPC      H17S           43.5535728417       26.7703225128       -0.3193700170  MEMB      83              0.0000000000
      9216        83  POPC      C218           41.6354218685       26.9813213171       -1.4314987272  MEMB      83              0.0000000000
      9217        83  POPC      H18R           41.8651498398       27.9533020496       -1.9181192775  MEMB      83              0.0000000000
      9218        83  POPC      H18S           40.5428411846       26.9511879834       -1.2322986356  MEMB      83              0.0000000000
      9219        83  POPC      H18T           41.7443966913       26.0513138864       -2.0294369633  MEMB      83              0.0000000000
      9220        83  POPC      C33            36.8684993291       22.7841259875       15.4191393593  MEMB      83              0.0000000000
      9221        83  POPC      H3X            37.4906984515       23.7004270836       15.5062123070  MEMB      83              0.0000000000
      9222        83  POPC      H3Y            35.8007567519       23.0158766840       15.6204798913  MEMB      83              0.0000000000
      9223        83  POPC      C34            37.0204050398       22.5687551498       13.8886830355  MEMB      83              0.0000000000
      9224        83  POPC      H4X            36.0455277233       22.6137346732       13.3577289088  MEMB      83              0.0000000000
      9225        83  POPC      H4Y            37.4074583489       21.5496202839       13.6744989750  MEMB      83              0.0000000000
      9226        83  POPC      C35            38.0691475815       23.5019804796       13.2053384924  MEMB      83              0.0000000000
      9227        83  POPC      H5X            38.9360190769       23.7861398616       13.8394583810  MEMB      83              0.0000000000
      9228        83  POPC      H5Y            37.5317687542       24.4727607053       13.1493853989  MEMB      83              0.0000000000
      9229        83  POPC      C36            38.3311339081       23.0502091885       11.7261565555  MEMB      83              0.0000000000
      9230        83  POPC      H6X            37.4384671177       22.6815941173       11.1769848466  MEMB      83              0.0000000000
      9231        83  POPC      H6Y            39.0881800436       22.2421381066       11.6354754367  MEMB      83              0.0000000000
      9232        83  POPC      C37            38.9773201590       24.3308916810       10.9571676002  MEMB      83              0.0000000000
      9233        83  POPC      H7X            39.9859287195       24.4710562278       11.4014468794  MEMB      83              0.0000000000
      9234        83  POPC      H7Y            38.3914994540       25.2635913456       11.1027925344  MEMB      83              0.0000000000
      9235        83  POPC      C38            38.8725116313       24.1624502385        9.4492521166  MEMB      83              0.0000000000
      9236        83  POPC      H8X            39.4075475006       23.2129342537        9.2336680732  MEMB      83              0.0000000000
      9237        83  POPC      H8Y            39.4378619579       25.0202583405        9.0263274789  MEMB      83              0.0000000000
      9238        83  POPC      C39            37.5212386761       23.9998851475        8.7922942356  MEMB      83              0.0000000000
      9239        83  POPC      H9X            36.8756583415       24.7360109653        9.3173331130  MEMB      83              0.0000000000
      9240        83  POPC      H9Y            37.1428287424       22.9777564774        9.0076543772  MEMB      83              0.0000000000
      9241        83  POPC      C310           37.4651293586       24.1166677189        7.2715370396  MEMB      83              0.0000000000
      9242        83  POPC      H10X           37.5827970800       25.1709326828        6.9413850399  MEMB      83              0.0000000000
      9243        83  POPC      H10Y           36.5055973356       23.6726363690        6.9302818750  MEMB      83              0.0000000000
      9244        83  POPC      C311           38.5498952488       23.2422472735        6.5980716720  MEMB      83              0.0000000000
      9245        83  POPC      H11X           38.4011308330       22.2074254995        6.9740154231  MEMB      83              0.0000000000
      9246        83  POPC      H11Y           39.4892383280       23.5871585228        7.0807638072  MEMB      83              0.0000000000
      9247        83  POPC      C312           38.7603195215       23.2470421340        5.1095231299  MEMB      83              0.0000000000
      9248        83  POPC      H12X           38.0293070803       22.6873966488        4.4876394449  MEMB      83              0.0000000000
      9249        83  POPC      H12Y           39.6892285563       22.6801634888        4.8856994043  MEMB      83              0.0000000000
      9250        83  POPC      C313           38.8756529071       24.6377538710        4.4472188829  MEMB      83              0.0000000000
      9251        83  POPC      H13X           39.8124467947       25.1156706381        4.8054561860  MEMB      83              0.0000000000
      9252        83  POPC      H13Y           38.0625450426       25.3618202723        4.6683633604  MEMB      83              0.0000000000
      9253        83  POPC      C314           38.9188838779       24.5716186108        2.8955850131  MEMB      83              0.0000000000
      9254        83  POPC      H14X           39.5539913314       23.7047299159        2.6136914828  MEMB      83              0.0000000000
      9255        83  POPC      H14Y           39.1183420038       25.5980247849        2.5200484153  MEMB      83              0.0000000000
      9256        83  POPC      C315           37.5536317251       24.1933174735        2.2875177942  MEMB      83              0.0000000000
      9257        83  POPC      H15X           36.8591386870       25.0345872288        2.4979087104  MEMB      83              0.0000000000
      9258        83  POPC      H15Y           37.0977438970       23.3076479223        2.7795308864  MEMB      83              0.0000000000
      9259        83  POPC      C316           37.5135404699       23.9962767489        0.7566127875  MEMB      83              0.0000000000
      9260        83  POPC      H16X           36.4682381276       24.0193386423        0.3809364898  MEMB      83              0.0000000000
      9261        83  POPC      H16Y           38.0433149394       23.0906585200        0.3912152747  MEMB      83              0.0000000000
      9262        83  POPC      H16Z           37.8463008281       24.9165799928        0.2306533175  MEMB      83              0.0000000000
      9263        84  POPC      N              31.4083121670      -36.0780760906       21.0062189218  MEMB      84              0.0000000000
      9264        84  POPC      C12            29.8957400866      -35.9489065811       20.7002757232  MEMB      84              0.0000000000
      9265        84  POPC      H12A           29.5050714224      -35.2761732866       21.4494137618  MEMB      84              0.0000000000
      9266        84  POPC      H12B           29.5028445119      -36.9466768546       20.8286795450  MEMB      84              0.0000000000
      9267        84  POPC      C13            31.5324736303      -36.6543299172       22.4001851972  MEMB      84              0.0000000000
      9268        84  POPC      H13A           31.6939511140      -35.8267247374       23.0750145091  MEMB      84              0.0000000000
      9269        84  POPC      H13B           30.6683627100      -37.2828938986       22.5570913383  MEMB      84              0.0000000000
      9270        84  POPC      H13C           32.4208972653      -37.2637705594       22.4755867801  MEMB      84              0.0000000000
      9271        84  POPC      C14            32.1050117625      -37.1703060965       20.0835787487  MEMB      84              0.0000000000
      9272        84  POPC      H14A           32.3971803483      -36.8062205867       19.1096797692  MEMB      84              0.0000000000
      9273        84  POPC      H14B           32.9667584879      -37.4942928610       20.6482246839  MEMB      84              0.0000000000
      9274        84  POPC      H14C           31.4084082938      -37.9938453981       20.0294795379  MEMB      84              0.0000000000
      9275        84  POPC      C15            32.1152600520      -34.7258247008       20.9225828284  MEMB      84              0.0000000000
      9276        84  POPC      H15A           33.1038560146      -34.8149729883       21.3481769144  MEMB      84              0.0000000000
      9277        84  POPC      H15B           31.6123070146      -33.9993242550       21.5435782064  MEMB      84              0.0000000000
      9278        84  POPC      H15C           32.0279056241      -34.4028151887       19.8957265193  MEMB      84              0.0000000000
      9279        84  POPC      C11            29.4315205184      -35.3797603640       19.2652968239  MEMB      84              0.0000000000
      9280        84  POPC      H11A           29.9908960952      -34.4199013023       19.2748104725  MEMB      84              0.0000000000
      9281        84  POPC      H11B           28.3294296619      -35.2520238415       19.3236077499  MEMB      84              0.0000000000
      9282        84  POPC      P              29.2413550959      -36.4693661645       16.8787729419  MEMB      84              0.0000000000
      9283        84  POPC      O13            27.8291761714      -36.9139019843       16.9333077158  MEMB      84              0.0000000000
      9284        84  POPC      O14            30.1312224743      -37.2694324858       15.9950519808  MEMB      84              0.0000000000
      9285        84  POPC      O12            29.8494606855      -36.3321638874       18.3139628183  MEMB      84              0.0000000000
      9286        84  POPC      O11            29.2377033739      -34.9555196916       16.5007663005  MEMB      84              0.0000000000
      9287        84  POPC      C1             30.4566212327      -34.1842731228       16.4359402326  MEMB      84              0.0000000000
      9288        84  POPC      HA             31.2392052014      -34.9160567428       16.1420422102  MEMB      84              0.0000000000
      9289        84  POPC      HB             30.7041585664      -33.8059280416       17.4507808932  MEMB      84              0.0000000000
      9290        84  POPC      C2             30.3957228468      -32.9660768695       15.4730018321  MEMB      84              0.0000000000
      9291        84  POPC      HS             29.8498866876      -32.1980222839       16.0616240483  MEMB      84              0.0000000000
      9292        84  POPC      O21            29.7560569163      -33.3148207711       14.2514377059  MEMB      84              0.0000000000
      9293        84  POPC      C21            28.8032594435      -32.5996950847       13.7745639805  MEMB      84              0.0000000000
      9294        84  POPC      O22            28.3288427535      -31.6111223796       14.2543775978  MEMB      84              0.0000000000
      9295        84  POPC      C22            28.3591717774      -33.3737107024       12.5084164265  MEMB      84              0.0000000000
      9296        84  POPC      H2R            27.6985249197      -34.1892554266       12.8727697777  MEMB      84              0.0000000000
      9297        84  POPC      H2S            29.1120094496      -33.9811168035       11.9619603494  MEMB      84              0.0000000000
      9298        84  POPC      C3             31.8186370628      -32.3525445588       15.1171744495  MEMB      84              0.0000000000
      9299        84  POPC      HX             32.5031060109      -31.9157462867       15.8754821028  MEMB      84              0.0000000000
      9300        84  POPC      HY             31.6744769609      -31.4815957944       14.4426473657  MEMB      84              0.0000000000
      9301        84  POPC      O31            32.6234540609      -33.3994495469       14.4799716949  MEMB      84              0.0000000000
      9302        84  POPC      C31            32.7683939522      -33.3424823178       13.1539506119  MEMB      84              0.0000000000
      9303        84  POPC      O32            32.5467136724      -32.3847430338       12.4633817344  MEMB      84              0.0000000000
      9304        84  POPC      C32            33.1917271560      -34.7281568420       12.6493025484  MEMB      84              0.0000000000
      9305        84  POPC      H2X            33.8983814433      -35.2071546716       13.3603031922  MEMB      84              0.0000000000
      9306        84  POPC      H2Y            33.6099516248      -34.6471543264       11.6232188706  MEMB      84              0.0000000000
      9307        84  POPC      C23            27.5401971256      -32.4723040720       11.5457430655  MEMB      84              0.0000000000
      9308        84  POPC      H3R            28.1533243194      -31.6182489400       11.1865968635  MEMB      84              0.0000000000
      9309        84  POPC      H3S            26.6965963249      -31.9549571183       12.0507292763  MEMB      84              0.0000000000
      9310        84  POPC      C24            26.8395650207      -33.2542514214       10.3560051795  MEMB      84              0.0000000000
      9311        84  POPC      H4R            26.1809862258      -32.5487132691        9.8057224270  MEMB      84              0.0000000000
      9312        84  POPC      H4S            26.2481088828      -34.0876527415       10.7918299626  MEMB      84              0.0000000000
      9313        84  POPC      C25            27.7878030808      -33.7964887969        9.2586452813  MEMB      84              0.0000000000
      9314        84  POPC      H5R            28.4692001222      -34.6103142259        9.5868334072  MEMB      84              0.0000000000
      9315        84  POPC      H5S            28.4163515343      -32.9301679880        8.9607593442  MEMB      84              0.0000000000
      9316        84  POPC      C26            27.1009399962      -34.2871546141        7.9481898053  MEMB      84              0.0000000000
      9317        84  POPC      H6R            27.8434008947      -34.3875971125        7.1278337771  MEMB      84              0.0000000000
      9318        84  POPC      H6S            26.2805120210      -33.6560398368        7.5445647188  MEMB      84              0.0000000000
      9319        84  POPC      C27            26.4005858329      -35.6230439535        8.1895636923  MEMB      84              0.0000000000
      9320        84  POPC      H7R            25.6143652204      -35.4021714214        8.9428189748  MEMB      84              0.0000000000
      9321        84  POPC      H7S            27.1462889713      -36.3778431240        8.5189952928  MEMB      84              0.0000000000
      9322        84  POPC      C28            25.6027509822      -36.1509394112        6.9180297779  MEMB      84              0.0000000000
      9323        84  POPC      H8R            24.8694254112      -35.3768352091        6.6060729262  MEMB      84              0.0000000000
      9324        84  POPC      H8S            25.0366626040      -37.0292322127        7.2954778774  MEMB      84              0.0000000000
      9325        84  POPC      C29            26.3406621877      -36.6578188367        5.7119767297  MEMB      84              0.0000000000
      9326        84  POPC      H91            26.7603858316      -37.6742504418        5.6855443361  MEMB      84              0.0000000000
      9327        84  POPC      C210           26.5296279979      -35.9713800372        4.5752723730  MEMB      84              0.0000000000
      9328        84  POPC      H101           26.9515541753      -36.4693811452        3.6898501891  MEMB      84              0.0000000000
      9329        84  POPC      C211           26.1113073452      -34.5606251786        4.2229673665  MEMB      84              0.0000000000
      9330        84  POPC      H11R           25.8148205115      -34.0746013116        5.1770100311  MEMB      84              0.0000000000
      9331        84  POPC      H11S           25.3896683388      -34.4290501103        3.3885531300  MEMB      84              0.0000000000
      9332        84  POPC      C212           27.2778078913      -33.6774828530        3.7425865027  MEMB      84              0.0000000000
      9333        84  POPC      H12R           27.6590358231      -33.9215738425        2.7279898818  MEMB      84              0.0000000000
      9334        84  POPC      H12S           28.1749640122      -33.8114145502        4.3840649111  MEMB      84              0.0000000000
      9335        84  POPC      C213           26.8634231466      -32.1595376332        3.6543859454  MEMB      84              0.0000000000
      9336        84  POPC      H13R           27.7720774495      -31.6048199305        3.3366492220  MEMB      84              0.0000000000
      9337        84  POPC      H13S           26.6475145022      -31.8096016077        4.6864949411  MEMB      84              0.0000000000
      9338        84  POPC      C214           25.6765233524      -31.9517183758        2.7177743121  MEMB      84              0.0000000000
      9339        84  POPC      H14R           25.4920329501      -30.8579271708        2.6552848271  MEMB      84              0.0000000000
      9340        84  POPC      H14S           24.8426956524      -32.4966509072        3.2098123576  MEMB      84              0.0000000000
      9341        84  POPC      C215           25.9221213464      -32.4416768313        1.2740632955  MEMB      84              0.0000000000
      9342        84  POPC      H15R           25.0496453324      -32.2298985647        0.6196498536  MEMB      84              0.0000000000
      9343        84  POPC      H15S           26.0704590058      -33.5354714658        1.4002775779  MEMB      84              0.0000000000
      9344        84  POPC      C216           27.2223472119      -31.8886080722        0.6168336337  MEMB      84              0.0000000000
      9345        84  POPC      H16R           28.1379345143      -32.1506181236        1.1889961262  MEMB      84              0.0000000000
      9346        84  POPC      H16S           27.1652993602      -30.7838198884        0.5143141383  MEMB      84              0.0000000000
      9347        84  POPC      C217           27.3010480453      -32.5424374969       -0.7301297562  MEMB      84              0.0000000000
      9348        84  POPC      H17R           28.0600735833      -32.0428210631       -1.3693355673  MEMB      84              0.0000000000
      9349        84  POPC      H17S           26.3472694653      -32.3193501616       -1.2544004977  MEMB      84              0.0000000000
      9350        84  POPC      C218           27.5828813457      -34.0406098414       -0.7699842920  MEMB      84              0.0000000000
      9351        84  POPC      H18R           26.7625999423      -34.5370198020       -0.2087023786  MEMB      84              0.0000000000
      9352        84  POPC      H18S           28.5216952704      -34.4594778011       -0.3486781457  MEMB      84              0.0000000000
      9353        84  POPC      H18T           27.5265816840      -34.3594687541       -1.8327544449  MEMB      84              0.0000000000
      9354        84  POPC      C33            31.9583603906      -35.6184340130       12.6175941453  MEMB      84              0.0000000000
      9355        84  POPC      H3X            31.2088927624      -35.1509838728       11.9437180280  MEMB      84              0.0000000000
      9356        84  POPC      H3Y            31.5968543912      -35.6895448760       13.6657251357  MEMB      84              0.0000000000
      9357        84  POPC      C34            32.2924900512      -36.9721959961       12.1384523979  MEMB      84              0.0000000000
      9358        84  POPC      H4X            31.4671329611      -37.6588251724       12.4241918205  MEMB      84              0.0000000000
      9359        84  POPC      H4Y            33.2068546136      -37.2634595544       12.6982953489  MEMB      84              0.0000000000
      9360        84  POPC      C35            32.4735450100      -37.0478200684       10.6238334782  MEMB      84              0.0000000000
      9361        84  POPC      H5X            32.9403954403      -38.0508769599       10.5225979903  MEMB      84              0.0000000000
      9362        84  POPC      H5Y            33.2787650278      -36.4067878046       10.2054807400  MEMB      84              0.0000000000
      9363        84  POPC      C36            31.2002573243      -37.0175367201        9.7740731659  MEMB      84              0.0000000000
      9364        84  POPC      H6X            30.7301868296      -36.0192126534        9.9033157622  MEMB      84              0.0000000000
      9365        84  POPC      H6Y            30.4943712418      -37.7939118103       10.1391586247  MEMB      84              0.0000000000
      9366        84  POPC      C37            31.4857994563      -37.3709672506        8.2823072159  MEMB      84              0.0000000000
      9367        84  POPC      H7X            30.5337070516      -37.8334406786        7.9447282634  MEMB      84              0.0000000000
      9368        84  POPC      H7Y            32.3048290843      -38.0937532442        8.0795958359  MEMB      84              0.0000000000
      9369        84  POPC      C38            31.6610878525      -36.1713914111        7.2977700024  MEMB      84              0.0000000000
      9370        84  POPC      H8X            32.6577119069      -35.6923635951        7.4054448817  MEMB      84              0.0000000000
      9371        84  POPC      H8Y            30.8232139480      -35.4584157713        7.4525407539  MEMB      84              0.0000000000
      9372        84  POPC      C39            31.6492040291      -36.6673455007        5.8678038886  MEMB      84              0.0000000000
      9373        84  POPC      H9X            30.7089486300      -37.2199893829        5.6560831938  MEMB      84              0.0000000000
      9374        84  POPC      H9Y            32.5311205347      -37.3217858941        5.6997200897  MEMB      84              0.0000000000
      9375        84  POPC      C310           31.8004650997      -35.6062552458        4.7494102741  MEMB      84              0.0000000000
      9376        84  POPC      H10X           32.7654444159      -35.0602480396        4.8202056879  MEMB      84              0.0000000000
      9377        84  POPC      H10Y           31.0091922091      -34.8478595035        4.9311915292  MEMB      84              0.0000000000
      9378        84  POPC      C311           31.7144045176      -36.0936312724        3.2561945432  MEMB      84              0.0000000000
      9379        84  POPC      H11X           30.9692589842      -36.9176548444        3.2642169313  MEMB      84              0.0000000000
      9380        84  POPC      H11Y           32.6175386573      -36.5829915777        2.8328781287  MEMB      84              0.0000000000
      9381        84  POPC      C312           31.2475817839      -35.0554583999        2.2533576874  MEMB      84              0.0000000000
      9382        84  POPC      H12X           30.4985317379      -34.3774197335        2.7154268798  MEMB      84              0.0000000000
      9383        84  POPC      H12Y           30.7367528921      -35.6245138263        1.4474104996  MEMB      84              0.0000000000
      9384        84  POPC      C313           32.2222419350      -34.1861346930        1.5011371815  MEMB      84              0.0000000000
      9385        84  POPC      H13X           33.1386877694      -33.8368739335        2.0231186171  MEMB      84              0.0000000000
      9386        84  POPC      H13Y           31.7460244316      -33.2844689258        1.0600733308  MEMB      84              0.0000000000
      9387        84  POPC      C314           32.7256149003      -34.8975032531        0.2356729222  MEMB      84              0.0000000000
      9388        84  POPC      H14X           32.9033922281      -35.9889781270        0.3424396737  MEMB      84              0.0000000000
      9389        84  POPC      H14Y           33.7391572999      -34.4890013039        0.0352274178  MEMB      84              0.0000000000
      9390        84  POPC      C315           32.0828568554      -34.4988002694       -1.1072577755  MEMB      84              0.0000000000
      9391        84  POPC      H15X           32.1865940498      -33.3962768766       -1.1967090013  MEMB      84              0.0000000000
      9392        84  POPC      H15Y           31.0125765427      -34.7934579720       -1.1519549267  MEMB      84              0.0000000000
      9393        84  POPC      C316           32.8328932513      -35.1431930275       -2.3125228405  MEMB      84              0.0000000000
      9394        84  POPC      H16X           32.2146029119      -34.8999745836       -3.2029622145  MEMB      84              0.0000000000
      9395        84  POPC      H16Y           32.8831234364      -36.2418495553       -2.1551958088  MEMB      84              0.0000000000
      9396        84  POPC      H16Z           33.8686748879      -34.7429860951       -2.2763012348  MEMB      84              0.0000000000
      9397        85  POPC      N             -52.4068919874       -7.2369607869       21.1993999042  MEMB      85              0.0000000000
      9398        85  POPC      C12           -53.1478639251       -6.5157359506       20.1247119813  MEMB      85              0.0000000000
      9399        85  POPC      H12A          -53.2268684342       -5.4923301160       20.4605673241  MEMB      85              0.0000000000
      9400        85  POPC      H12B          -54.1809701303       -6.8216393301       20.0504512657  MEMB      85              0.0000000000
      9401        85  POPC      C13           -50.9145944108       -7.0525756488       21.2044583174  MEMB      85              0.0000000000
      9402        85  POPC      H13A          -50.5404588446       -7.6581588204       22.0166722251  MEMB      85              0.0000000000
      9403        85  POPC      H13B          -50.4196006476       -7.3707865401       20.2988519200  MEMB      85              0.0000000000
      9404        85  POPC      H13C          -50.7529594932       -6.0232137284       21.4885152134  MEMB      85              0.0000000000
      9405        85  POPC      C14           -53.1608171716       -6.7744865677       22.4984763294  MEMB      85              0.0000000000
      9406        85  POPC      H14A          -54.2073733732       -6.5800248184       22.3159802660  MEMB      85              0.0000000000
      9407        85  POPC      H14B          -53.0406549550       -7.4062190976       23.3661600570  MEMB      85              0.0000000000
      9408        85  POPC      H14C          -52.6879783172       -5.8223886469       22.6890880326  MEMB      85              0.0000000000
      9409        85  POPC      C15           -52.7528817406       -8.7626623266       20.9578151902  MEMB      85              0.0000000000
      9410        85  POPC      H15A          -52.4642126944       -9.0085178017       19.9465657465  MEMB      85              0.0000000000
      9411        85  POPC      H15B          -53.7685114534       -8.9979550800       21.2398326402  MEMB      85              0.0000000000
      9412        85  POPC      H15C          -52.1407150038       -9.3257292901       21.6467327435  MEMB      85              0.0000000000
      9413        85  POPC      C11           -52.5718516674       -6.3594925458       18.6579001660  MEMB      85              0.0000000000
      9414        85  POPC      H11A          -51.6330507836       -5.7683957207       18.5980810982  MEMB      85              0.0000000000
      9415        85  POPC      H11B          -53.3530637217       -5.8487009809       18.0553050550  MEMB      85              0.0000000000
      9416        85  POPC      P             -51.4924646034       -7.8656641847       16.8678194278  MEMB      85              0.0000000000
      9417        85  POPC      O13           -51.2631180945       -9.3136168926       16.6670619321  MEMB      85              0.0000000000
      9418        85  POPC      O14           -50.3191976007       -6.9588026846       17.0560106882  MEMB      85              0.0000000000
      9419        85  POPC      O12           -52.4477377000       -7.6349499920       18.0683982109  MEMB      85              0.0000000000
      9420        85  POPC      O11           -52.3034359183       -7.2901886190       15.6979478511  MEMB      85              0.0000000000
      9421        85  POPC      C1            -53.6748757912       -7.4889968272       15.7040573968  MEMB      85              0.0000000000
      9422        85  POPC      HA            -54.2129012064       -6.7273159340       16.3079544873  MEMB      85              0.0000000000
      9423        85  POPC      HB            -53.8827182881       -8.5268367912       16.0417121634  MEMB      85              0.0000000000
      9424        85  POPC      C2            -54.2942845999       -7.3587719639       14.3486615559  MEMB      85              0.0000000000
      9425        85  POPC      HS            -55.3323511154       -6.9692990559       14.4197213691  MEMB      85              0.0000000000
      9426        85  POPC      O21           -54.2145388490       -8.4541574454       13.4698790898  MEMB      85              0.0000000000
      9427        85  POPC      C21           -55.1134428997       -9.3353634677       13.7684243644  MEMB      85              0.0000000000
      9428        85  POPC      O22           -56.0163652464       -9.2877963953       14.6046724855  MEMB      85              0.0000000000
      9429        85  POPC      C22           -54.8196876412      -10.5768844745       12.9508238421  MEMB      85              0.0000000000
      9430        85  POPC      H2R           -55.4600728104      -11.3992488759       13.3354596446  MEMB      85              0.0000000000
      9431        85  POPC      H2S           -53.8024943802      -11.0159828205       13.0334769512  MEMB      85              0.0000000000
      9432        85  POPC      C3            -53.6696589999       -6.1351644600       13.6389275229  MEMB      85              0.0000000000
      9433        85  POPC      HX            -53.6654061235       -5.3484086464       14.4233499362  MEMB      85              0.0000000000
      9434        85  POPC      HY            -54.1480943340       -5.7415969523       12.7166882699  MEMB      85              0.0000000000
      9435        85  POPC      O31           -52.2878157653       -6.3074253112       13.2687954862  MEMB      85              0.0000000000
      9436        85  POPC      C31           -51.9709228958       -7.1072104313       12.2517488568  MEMB      85              0.0000000000
      9437        85  POPC      O32           -52.7867850205       -7.5312424479       11.4240176210  MEMB      85              0.0000000000
      9438        85  POPC      C32           -50.3997971132       -7.3035899594       12.1270487511  MEMB      85              0.0000000000
      9439        85  POPC      H2X           -49.9018260268       -7.6881055278       13.0427416211  MEMB      85              0.0000000000
      9440        85  POPC      H2Y           -49.8681879824       -6.3610645082       11.8753378140  MEMB      85              0.0000000000
      9441        85  POPC      C23           -54.9320667007      -10.3329353961       11.4102959630  MEMB      85              0.0000000000
      9442        85  POPC      H3R           -54.4869999095      -11.1431747446       10.7940586289  MEMB      85              0.0000000000
      9443        85  POPC      H3S           -54.3664800149       -9.4383069582       11.0725495074  MEMB      85              0.0000000000
      9444        85  POPC      C24           -56.3900071016      -10.0324704424       11.0406791954  MEMB      85              0.0000000000
      9445        85  POPC      H4R           -56.9383892476      -10.5812575065       11.8359341764  MEMB      85              0.0000000000
      9446        85  POPC      H4S           -56.5652421086      -10.5869682830       10.0940297548  MEMB      85              0.0000000000
      9447        85  POPC      C25           -56.6695135114       -8.5279260722       10.8594366717  MEMB      85              0.0000000000
      9448        85  POPC      H5R           -56.4172981866       -7.9786342627       11.7916310446  MEMB      85              0.0000000000
      9449        85  POPC      H5S           -57.7696337355       -8.4358570189       10.7346163400  MEMB      85              0.0000000000
      9450        85  POPC      C26           -55.9631328076       -7.8969731542        9.5946840450  MEMB      85              0.0000000000
      9451        85  POPC      H6R           -54.8685319617       -7.7122682736        9.6400114529  MEMB      85              0.0000000000
      9452        85  POPC      H6S           -56.4393191758       -6.8962903840        9.6734352827  MEMB      85              0.0000000000
      9453        85  POPC      C27           -56.3422896584       -8.6026402020        8.2654300650  MEMB      85              0.0000000000
      9454        85  POPC      H7R           -57.4232991739       -8.8438858007        8.1785988597  MEMB      85              0.0000000000
      9455        85  POPC      H7S           -55.8750135491       -9.6005380240        8.4074651172  MEMB      85              0.0000000000
      9456        85  POPC      C28           -55.9928797788       -7.8713151680        6.9468601183  MEMB      85              0.0000000000
      9457        85  POPC      H8R           -56.7444704295       -7.0847741737        6.7215019594  MEMB      85              0.0000000000
      9458        85  POPC      H8S           -56.1045164128       -8.5408154937        6.0672987763  MEMB      85              0.0000000000
      9459        85  POPC      C29           -54.7212517323       -7.0685498185        6.8463353946  MEMB      85              0.0000000000
      9460        85  POPC      H91           -53.8536851949       -7.6678882868        7.1595789619  MEMB      85              0.0000000000
      9461        85  POPC      C210          -54.5189533720       -5.8826367394        6.2158007913  MEMB      85              0.0000000000
      9462        85  POPC      H101          -53.5626089127       -5.3500115845        6.3240394818  MEMB      85              0.0000000000
      9463        85  POPC      C211          -55.5977507593       -5.0325858041        5.4845076753  MEMB      85              0.0000000000
      9464        85  POPC      H11R          -55.7384165222       -4.1355149621        6.1246617968  MEMB      85              0.0000000000
      9465        85  POPC      H11S          -56.6113238366       -5.4835968486        5.4246760143  MEMB      85              0.0000000000
      9466        85  POPC      C212          -55.0333052384       -4.8083448647        4.1109230957  MEMB      85              0.0000000000
      9467        85  POPC      H12R          -54.0250199529       -4.3448357755        4.1642256890  MEMB      85              0.0000000000
      9468        85  POPC      H12S          -55.7616735299       -4.1739962839        3.5619211784  MEMB      85              0.0000000000
      9469        85  POPC      C213          -54.9107665220       -6.1267891017        3.2392166577  MEMB      85              0.0000000000
      9470        85  POPC      H13R          -54.2629354421       -6.8887547195        3.7229985947  MEMB      85              0.0000000000
      9471        85  POPC      H13S          -54.3987683948       -6.0326732681        2.2577274712  MEMB      85              0.0000000000
      9472        85  POPC      C214          -56.3436105773       -6.6397975136        2.9378931497  MEMB      85              0.0000000000
      9473        85  POPC      H14R          -56.9243601042       -6.1123569350        2.1512180050  MEMB      85              0.0000000000
      9474        85  POPC      H14S          -56.9652168855       -6.5235045434        3.8513494246  MEMB      85              0.0000000000
      9475        85  POPC      C215          -56.4309100464       -8.1244857324        2.5978130346  MEMB      85              0.0000000000
      9476        85  POPC      H15R          -56.0449404219       -8.7491612272        3.4315573724  MEMB      85              0.0000000000
      9477        85  POPC      H15S          -55.8692362383       -8.2418241431        1.6464597355  MEMB      85              0.0000000000
      9478        85  POPC      C216          -57.7961065359       -8.6587840327        2.2578892048  MEMB      85              0.0000000000
      9479        85  POPC      H16R          -58.1481268139       -8.2954448014        1.2687539612  MEMB      85              0.0000000000
      9480        85  POPC      H16S          -58.4044318769       -8.3332402268        3.1286825346  MEMB      85              0.0000000000
      9481        85  POPC      C217          -57.8779542862      -10.1551041953        2.0426602752  MEMB      85              0.0000000000
      9482        85  POPC      H17R          -57.3204678739      -10.7090415635        2.8279516023  MEMB      85              0.0000000000
      9483        85  POPC      H17S          -57.3821890100      -10.2976505366        1.0586783821  MEMB      85              0.0000000000
      9484        85  POPC      C218          -59.2091182215      -10.7678287236        1.8505165935  MEMB      85              0.0000000000
      9485        85  POPC      H18R          -59.8201025966      -10.7296383797        2.7776426435  MEMB      85              0.0000000000
      9486        85  POPC      H18S          -59.0948400104      -11.8267161601        1.5342595283  MEMB      85              0.0000000000
      9487        85  POPC      H18T          -59.8453979157      -10.3072400257        1.0648152324  MEMB      85              0.0000000000
      9488        85  POPC      C33           -49.9949655733       -8.4690512215       11.1348197833  MEMB      85              0.0000000000
      9489        85  POPC      H3X           -50.8625551248       -9.1607365394       11.1912163943  MEMB      85              0.0000000000
      9490        85  POPC      H3Y           -49.1527448783       -9.0555534566       11.5602615550  MEMB      85              0.0000000000
      9491        85  POPC      C34           -49.5935257623       -8.0585919012        9.7226673424  MEMB      85              0.0000000000
      9492        85  POPC      H4X           -48.5892727333       -7.6007463529        9.8498468978  MEMB      85              0.0000000000
      9493        85  POPC      H4Y           -50.3089610834       -7.2860949199        9.3680945858  MEMB      85              0.0000000000
      9494        85  POPC      C35           -49.3425772805       -9.2437466391        8.7860327004  MEMB      85              0.0000000000
      9495        85  POPC      H5X           -50.2924554847       -9.6780788160        8.4073405615  MEMB      85              0.0000000000
      9496        85  POPC      H5Y           -48.7671310648       -9.9916429931        9.3724062393  MEMB      85              0.0000000000
      9497        85  POPC      C36           -48.4412018761       -9.0212628405        7.5606510520  MEMB      85              0.0000000000
      9498        85  POPC      H6X           -48.0590113032       -9.9753919136        7.1388831551  MEMB      85              0.0000000000
      9499        85  POPC      H6Y           -47.4777514048       -8.5299987580        7.8150980918  MEMB      85              0.0000000000
      9500        85  POPC      C37           -49.1386319527       -8.2313998659        6.3565591469  MEMB      85              0.0000000000
      9501        85  POPC      H7X           -50.1215444775       -8.7490160643        6.3732133836  MEMB      85              0.0000000000
      9502        85  POPC      H7Y           -48.5854118190       -8.6027873217        5.4675487214  MEMB      85              0.0000000000
      9503        85  POPC      C38           -49.3535632877       -6.7368667885        6.5595260098  MEMB      85              0.0000000000
      9504        85  POPC      H8X           -48.3886863791       -6.2697330780        6.2677742731  MEMB      85              0.0000000000
      9505        85  POPC      H8Y           -49.5019162337       -6.5521412715        7.6449696697  MEMB      85              0.0000000000
      9506        85  POPC      C39           -50.4429977315       -6.1419026566        5.7039825399  MEMB      85              0.0000000000
      9507        85  POPC      H9X           -50.5006649834       -5.0486574348        5.8932183830  MEMB      85              0.0000000000
      9508        85  POPC      H9Y           -51.3919375322       -6.4489812810        6.1934079740  MEMB      85              0.0000000000
      9509        85  POPC      C310          -50.5712175230       -6.5789718317        4.1957716466  MEMB      85              0.0000000000
      9510        85  POPC      H10X          -51.6156402163       -6.9114383862        4.0141994543  MEMB      85              0.0000000000
      9511        85  POPC      H10Y          -49.9055288022       -7.4478939384        4.0056294927  MEMB      85              0.0000000000
      9512        85  POPC      C311          -50.2572688169       -5.5320577254        3.1422724403  MEMB      85              0.0000000000
      9513        85  POPC      H11X          -49.3877653016       -4.9306052713        3.4836513496  MEMB      85              0.0000000000
      9514        85  POPC      H11Y          -51.1307808197       -4.8577017822        3.0136572939  MEMB      85              0.0000000000
      9515        85  POPC      C312          -49.7899305811       -6.1915342831        1.7984348946  MEMB      85              0.0000000000
      9516        85  POPC      H12X          -48.9450727232       -6.8734290596        2.0341379881  MEMB      85              0.0000000000
      9517        85  POPC      H12Y          -49.5921587726       -5.3376495966        1.1157279635  MEMB      85              0.0000000000
      9518        85  POPC      C313          -50.8349859779       -7.1162106704        1.1537325915  MEMB      85              0.0000000000
      9519        85  POPC      H13X          -51.8414496026       -6.6458503684        1.1643815048  MEMB      85              0.0000000000
      9520        85  POPC      H13Y          -50.8445965560       -8.0444918609        1.7640791465  MEMB      85              0.0000000000
      9521        85  POPC      C314          -50.4303762744       -7.4346335455       -0.3228769524  MEMB      85              0.0000000000
      9522        85  POPC      H14X          -49.3352560257       -7.6202503395       -0.3469385830  MEMB      85              0.0000000000
      9523        85  POPC      H14Y          -50.8004939183       -6.5549786990       -0.8916845812  MEMB      85              0.0000000000
      9524        85  POPC      C315          -51.0019542978       -8.7239194139       -0.8755793311  MEMB      85              0.0000000000
      9525        85  POPC      H15X          -52.0905724128       -8.5930502932       -1.0547571576  MEMB      85              0.0000000000
      9526        85  POPC      H15Y          -50.9346923437       -9.5844761905       -0.1761232556  MEMB      85              0.0000000000
      9527        85  POPC      C316          -50.4232348435       -9.0730425814       -2.2585852997  MEMB      85              0.0000000000
      9528        85  POPC      H16X          -51.1604399395       -9.5581153960       -2.9335325031  MEMB      85              0.0000000000
      9529        85  POPC      H16Y          -49.5513451913       -9.7519324134       -2.1435282432  MEMB      85              0.0000000000
      9530        85  POPC      H16Z          -50.0223172875       -8.0740295240       -2.5334646823  MEMB      85              0.0000000000
      9531        86  POPC      N              22.0048570260      -44.1120518083       20.2042487510  MEMB      86              0.0000000000
      9532        86  POPC      C12            23.4203615500      -44.4022773421       19.7796796316  MEMB      86              0.0000000000
      9533        86  POPC      H12A           23.3357869491      -44.8181462979       18.7865531269  MEMB      86              0.0000000000
      9534        86  POPC      H12B           23.7259537107      -45.2667756229       20.3503425943  MEMB      86              0.0000000000
      9535        86  POPC      C13            21.4024600385      -43.2408864548       19.1326138497  MEMB      86              0.0000000000
      9536        86  POPC      H13A           21.3616495934      -43.7914225085       18.2043657113  MEMB      86              0.0000000000
      9537        86  POPC      H13B           20.3811846955      -43.0388279795       19.4199629102  MEMB      86              0.0000000000
      9538        86  POPC      H13C           21.9992367549      -42.3528105888       18.9857164839  MEMB      86              0.0000000000
      9539        86  POPC      C14            21.2002198919      -45.3505091643       20.1650672427  MEMB      86              0.0000000000
      9540        86  POPC      H14A           21.5270239251      -46.1500239131       20.8134309452  MEMB      86              0.0000000000
      9541        86  POPC      H14B           20.1501405409      -45.1882339485       20.3584579860  MEMB      86              0.0000000000
      9542        86  POPC      H14C           21.1709718404      -45.6697555943       19.1337446448  MEMB      86              0.0000000000
      9543        86  POPC      C15            21.9261931963      -43.4583690665       21.5768395702  MEMB      86              0.0000000000
      9544        86  POPC      H15A           22.4389312856      -44.0783228848       22.2973649285  MEMB      86              0.0000000000
      9545        86  POPC      H15B           20.8892031568      -43.3739509520       21.8665380878  MEMB      86              0.0000000000
      9546        86  POPC      H15C           22.4367534898      -42.5106257073       21.6635038662  MEMB      86              0.0000000000
      9547        86  POPC      C11            24.5433380040      -43.3249497933       19.8609275140  MEMB      86              0.0000000000
      9548        86  POPC      H11A           25.4406932156      -43.8077031649       19.4181816335  MEMB      86              0.0000000000
      9549        86  POPC      H11B           24.8475112344      -43.0514250236       20.8938766632  MEMB      86              0.0000000000
      9550        86  POPC      P              24.7113346527      -41.8677222097       17.6140420198  MEMB      86              0.0000000000
      9551        86  POPC      O13            24.9828442196      -43.1934941047       16.9574162750  MEMB      86              0.0000000000
      9552        86  POPC      O14            25.8443645148      -40.8916375848       17.6290574844  MEMB      86              0.0000000000
      9553        86  POPC      O12            24.2943892631      -42.1488492972       19.0711747432  MEMB      86              0.0000000000
      9554        86  POPC      O11            23.4488142611      -41.2056196921       17.0089329491  MEMB      86              0.0000000000
      9555        86  POPC      C1             22.8067326286      -40.1928876742       17.7556563166  MEMB      86              0.0000000000
      9556        86  POPC      HA             23.3735870697      -39.7714001662       18.6131790868  MEMB      86              0.0000000000
      9557        86  POPC      HB             21.8381183727      -40.6325746553       18.0762539155  MEMB      86              0.0000000000
      9558        86  POPC      C2             22.6170314597      -38.9654076789       16.9027124305  MEMB      86              0.0000000000
      9559        86  POPC      HS             21.9000791125      -38.2186251557       17.3059697843  MEMB      86              0.0000000000
      9560        86  POPC      O21            21.9992735538      -39.2708864489       15.6950131238  MEMB      86              0.0000000000
      9561        86  POPC      C21            20.8581848404      -39.8297410145       15.6923889766  MEMB      86              0.0000000000
      9562        86  POPC      O22            20.0779989614      -40.0486155724       16.6322948232  MEMB      86              0.0000000000
      9563        86  POPC      C22            20.4875410620      -40.1372123871       14.2436808061  MEMB      86              0.0000000000
      9564        86  POPC      H2R            21.4011287704      -40.3812318142       13.6604715423  MEMB      86              0.0000000000
      9565        86  POPC      H2S            20.0431370511      -39.2162329496       13.8093732973  MEMB      86              0.0000000000
      9566        86  POPC      C3             24.0090910530      -38.2832300458       16.6536408416  MEMB      86              0.0000000000
      9567        86  POPC      HX             24.5319812537      -38.0924230853       17.6151499040  MEMB      86              0.0000000000
      9568        86  POPC      HY             23.7878296495      -37.2609307183       16.2791159573  MEMB      86              0.0000000000
      9569        86  POPC      O31            24.9050520607      -39.0491945575       15.8196215911  MEMB      86              0.0000000000
      9570        86  POPC      C31            24.6834672221      -38.9759302251       14.4987325134  MEMB      86              0.0000000000
      9571        86  POPC      O32            24.0131948845      -38.1683502170       13.9602091888  MEMB      86              0.0000000000
      9572        86  POPC      C32            25.3736915723      -40.1380581460       13.7824662217  MEMB      86              0.0000000000
      9573        86  POPC      H2X            25.9654881626      -40.8089551193       14.4412493448  MEMB      86              0.0000000000
      9574        86  POPC      H2Y            26.1337758841      -39.7454333300       13.0736372384  MEMB      86              0.0000000000
      9575        86  POPC      C23            19.4988894441      -41.3383578478       14.1447237484  MEMB      86              0.0000000000
      9576        86  POPC      H3R            19.4874663804      -41.5418181545       13.0525724251  MEMB      86              0.0000000000
      9577        86  POPC      H3S            18.4886387036      -41.0286594274       14.4879455072  MEMB      86              0.0000000000
      9578        86  POPC      C24            19.8536727066      -42.6708295009       14.7522196465  MEMB      86              0.0000000000
      9579        86  POPC      H4R            19.0276255124      -43.4062094394       14.6464659945  MEMB      86              0.0000000000
      9580        86  POPC      H4S            19.8309746386      -42.6480813409       15.8627548518  MEMB      86              0.0000000000
      9581        86  POPC      C25            21.1080270610      -43.4403101982       14.2602156033  MEMB      86              0.0000000000
      9582        86  POPC      H5R            21.9837255912      -42.7577731669       14.3004169948  MEMB      86              0.0000000000
      9583        86  POPC      H5S            20.9938754279      -43.7890517468       13.2115643664  MEMB      86              0.0000000000
      9584        86  POPC      C26            21.2957282620      -44.8611351018       14.8957081296  MEMB      86              0.0000000000
      9585        86  POPC      H6R            20.3278045106      -45.3878366008       14.7541807803  MEMB      86              0.0000000000
      9586        86  POPC      H6S            21.5645544830      -44.7726255694       15.9700542530  MEMB      86              0.0000000000
      9587        86  POPC      C27            22.4889264634      -45.7263885643       14.2809218694  MEMB      86              0.0000000000
      9588        86  POPC      H7R            22.4157521154      -46.6722092567       14.8591866822  MEMB      86              0.0000000000
      9589        86  POPC      H7S            23.4585967208      -45.2567517387       14.5520338391  MEMB      86              0.0000000000
      9590        86  POPC      C28            22.4245599676      -45.9182453599       12.7661775034  MEMB      86              0.0000000000
      9591        86  POPC      H8R            23.2739014170      -46.5854080264       12.5057276207  MEMB      86              0.0000000000
      9592        86  POPC      H8S            22.4723016602      -44.9176159345       12.2857793736  MEMB      86              0.0000000000
      9593        86  POPC      C29            21.1889734823      -46.7730404435       12.4224051711  MEMB      86              0.0000000000
      9594        86  POPC      H91            21.3133230686      -47.7916964785       12.8184820650  MEMB      86              0.0000000000
      9595        86  POPC      C210           20.1472693966      -46.3451250925       11.6718526250  MEMB      86              0.0000000000
      9596        86  POPC      H101           19.3180380787      -47.0265683716       11.4309992401  MEMB      86              0.0000000000
      9597        86  POPC      C211           20.0410588511      -44.9406255981       11.0850595318  MEMB      86              0.0000000000
      9598        86  POPC      H11R           21.0071076734      -44.4294691483       11.2845322647  MEMB      86              0.0000000000
      9599        86  POPC      H11S           19.1266113477      -44.4288236796       11.4540657159  MEMB      86              0.0000000000
      9600        86  POPC      C212           19.8551307190      -44.9687775356        9.5425373007  MEMB      86              0.0000000000
      9601        86  POPC      H12R           19.7235958647      -43.8718381639        9.4253036866  MEMB      86              0.0000000000
      9602        86  POPC      H12S           18.8901136705      -45.4418186270        9.2609421752  MEMB      86              0.0000000000
      9603        86  POPC      C213           20.9745980012      -45.6601262750        8.8224868365  MEMB      86              0.0000000000
      9604        86  POPC      H13R           20.5531021895      -46.6138767077        8.4390519059  MEMB      86              0.0000000000
      9605        86  POPC      H13S           21.7916604850      -45.8936211548        9.5381757951  MEMB      86              0.0000000000
      9606        86  POPC      C214           21.4715274058      -44.9106830018        7.6256411290  MEMB      86              0.0000000000
      9607        86  POPC      H14R           22.4635696797      -45.2789512187        7.2871865563  MEMB      86              0.0000000000
      9608        86  POPC      H14S           21.5674402847      -43.8330340781        7.8782161471  MEMB      86              0.0000000000
      9609        86  POPC      C215           20.4778364431      -45.0939308846        6.4209221230  MEMB      86              0.0000000000
      9610        86  POPC      H15R           19.4743250624      -45.0101122467        6.8902414765  MEMB      86              0.0000000000
      9611        86  POPC      H15S           20.7571581323      -46.0189334400        5.8725870556  MEMB      86              0.0000000000
      9612        86  POPC      C216           20.6874726610      -43.8013192039        5.6165309678  MEMB      86              0.0000000000
      9613        86  POPC      H16R           21.6823911488      -43.5098530651        5.2171493859  MEMB      86              0.0000000000
      9614        86  POPC      H16S           20.3460550865      -43.0163419679        6.3247443297  MEMB      86              0.0000000000
      9615        86  POPC      C217           19.8362243967      -43.7639129133        4.3393954087  MEMB      86              0.0000000000
      9616        86  POPC      H17R           19.4587127069      -42.7192312811        4.3182695963  MEMB      86              0.0000000000
      9617        86  POPC      H17S           18.9116503110      -44.3498106900        4.5296777172  MEMB      86              0.0000000000
      9618        86  POPC      C218           20.6012904253      -44.0011057165        3.0041904774  MEMB      86              0.0000000000
      9619        86  POPC      H18R           20.9536657435      -45.0546690003        3.0167186160  MEMB      86              0.0000000000
      9620        86  POPC      H18S           21.3779625859      -43.2269188410        2.8260451738  MEMB      86              0.0000000000
      9621        86  POPC      H18T           19.8611417189      -43.7872233242        2.2037187290  MEMB      86              0.0000000000
      9622        86  POPC      C33            24.3146160439      -40.9519382851       12.9657279169  MEMB      86              0.0000000000
      9623        86  POPC      H3X            23.8335516457      -40.2885797289       12.2154923265  MEMB      86              0.0000000000
      9624        86  POPC      H3Y            23.5655440588      -41.3717686198       13.6706783495  MEMB      86              0.0000000000
      9625        86  POPC      C34            24.7756908141      -42.2724286262       12.2514587657  MEMB      86              0.0000000000
      9626        86  POPC      H4X            23.8724822379      -42.7776958461       11.8474290067  MEMB      86              0.0000000000
      9627        86  POPC      H4Y            25.2883109614      -42.9550014647       12.9625397664  MEMB      86              0.0000000000
      9628        86  POPC      C35            25.6482187960      -41.9313166216       11.0348395044  MEMB      86              0.0000000000
      9629        86  POPC      H5X            26.2025522256      -42.8301594165       10.6897064384  MEMB      86              0.0000000000
      9630        86  POPC      H5Y            26.3574989153      -41.1537245365       11.3906390583  MEMB      86              0.0000000000
      9631        86  POPC      C36            24.8136438748      -41.4720824183        9.8429132818  MEMB      86              0.0000000000
      9632        86  POPC      H6X            24.3037173059      -40.5169632985       10.0919986132  MEMB      86              0.0000000000
      9633        86  POPC      H6Y            23.9251534648      -42.1204554843        9.6863300386  MEMB      86              0.0000000000
      9634        86  POPC      C37            25.5641903822      -41.3127535490        8.5388889510  MEMB      86              0.0000000000
      9635        86  POPC      H7X            26.0182658937      -42.3021509624        8.3170126107  MEMB      86              0.0000000000
      9636        86  POPC      H7Y            26.3803890299      -40.6217075991        8.8398812493  MEMB      86              0.0000000000
      9637        86  POPC      C38            24.8310777770      -40.6638473124        7.3505613699  MEMB      86              0.0000000000
      9638        86  POPC      H8X            24.2959481736      -41.4947021850        6.8429810116  MEMB      86              0.0000000000
      9639        86  POPC      H8Y            25.5658044682      -40.4406626794        6.5476376198  MEMB      86              0.0000000000
      9640        86  POPC      C39            24.0366739885      -39.4064257245        7.6153629884  MEMB      86              0.0000000000
      9641        86  POPC      H9X            24.7591692778      -38.7246014194        8.1127929575  MEMB      86              0.0000000000
      9642        86  POPC      H9Y            23.0836150595      -39.6432371228        8.1349012334  MEMB      86              0.0000000000
      9643        86  POPC      C310           23.6829740853      -38.6376454063        6.3201664596  MEMB      86              0.0000000000
      9644        86  POPC      H10X           24.5767508367      -38.5693979298        5.6637934280  MEMB      86              0.0000000000
      9645        86  POPC      H10Y           23.3205821082      -37.6158580987        6.5629488547  MEMB      86              0.0000000000
      9646        86  POPC      C311           22.5444032147      -39.3412963354        5.5429862799  MEMB      86              0.0000000000
      9647        86  POPC      H11X           21.5601579573      -39.3981134682        6.0551907008  MEMB      86              0.0000000000
      9648        86  POPC      H11Y           22.8219393509      -40.4052917169        5.3842158177  MEMB      86              0.0000000000
      9649        86  POPC      C312           22.3550890944      -38.6153765507        4.1493900615  MEMB      86              0.0000000000
      9650        86  POPC      H12X           21.9510064872      -37.5992857637        4.3458530342  MEMB      86              0.0000000000
      9651        86  POPC      H12Y           21.6027990185      -39.1238387188        3.5091969414  MEMB      86              0.0000000000
      9652        86  POPC      C313           23.4740757734      -38.3973546954        3.1844886514  MEMB      86              0.0000000000
      9653        86  POPC      H13X           24.3116459285      -37.7195661070        3.4554138723  MEMB      86              0.0000000000
      9654        86  POPC      H13Y           23.0104257745      -37.9315527077        2.2887336264  MEMB      86              0.0000000000
      9655        86  POPC      C314           24.0198869576      -39.7621058700        2.6221424077  MEMB      86              0.0000000000
      9656        86  POPC      H14X           23.2151385644      -40.3522233861        2.1338163548  MEMB      86              0.0000000000
      9657        86  POPC      H14Y           24.3852851324      -40.3247226423        3.5077316799  MEMB      86              0.0000000000
      9658        86  POPC      C315           25.1641211282      -39.5118887182        1.5885452475  MEMB      86              0.0000000000
      9659        86  POPC      H15X           24.7339090281      -39.0941468947        0.6532745281  MEMB      86              0.0000000000
      9660        86  POPC      H15Y           25.4724610347      -40.5683130416        1.4361783637  MEMB      86              0.0000000000
      9661        86  POPC      C316           26.4141887953      -38.7413937861        2.0251866846  MEMB      86              0.0000000000
      9662        86  POPC      H16X           26.2970156784      -37.6891542538        1.6884620718  MEMB      86              0.0000000000
      9663        86  POPC      H16Y           27.3004992985      -39.1930098327        1.5303957257  MEMB      86              0.0000000000
      9664        86  POPC      H16Z           26.6108268649      -38.9342987402        3.1014954980  MEMB      86              0.0000000000
      9665        87  POPC      N              24.9358376661       43.1227330794       20.7071839508  MEMB      87              0.0000000000
      9666        87  POPC      C12            24.8409191728       43.1294996707       19.2165755521  MEMB      87              0.0000000000
      9667        87  POPC      H12A           23.9693621238       42.4978391254       19.1282947662  MEMB      87              0.0000000000
      9668        87  POPC      H12B           25.5634034218       42.4171138207       18.8465445220  MEMB      87              0.0000000000
      9669        87  POPC      C13            23.6658509369       43.8274441530       21.2229053725  MEMB      87              0.0000000000
      9670        87  POPC      H13A           22.8284311975       43.1613244666       21.3692372624  MEMB      87              0.0000000000
      9671        87  POPC      H13B           23.9324598243       44.3893001388       22.1058763806  MEMB      87              0.0000000000
      9672        87  POPC      H13C           23.4005971058       44.5390968852       20.4550572456  MEMB      87              0.0000000000
      9673        87  POPC      C14            24.8685036790       41.6715944834       21.1185754897  MEMB      87              0.0000000000
      9674        87  POPC      H14A           25.8171768185       41.2070384462       20.8936152899  MEMB      87              0.0000000000
      9675        87  POPC      H14B           24.5368657026       41.6899573652       22.1462326932  MEMB      87              0.0000000000
      9676        87  POPC      H14C           24.0788100159       41.1069572243       20.6453220937  MEMB      87              0.0000000000
      9677        87  POPC      C15            26.1416750811       43.7886216528       21.2948667853  MEMB      87              0.0000000000
      9678        87  POPC      H15A           26.0148157147       44.8457458659       21.1137726504  MEMB      87              0.0000000000
      9679        87  POPC      H15B           26.9922655035       43.4439265900       20.7255855736  MEMB      87              0.0000000000
      9680        87  POPC      H15C           26.1113295907       43.4486777838       22.3195215943  MEMB      87              0.0000000000
      9681        87  POPC      C11            24.8697798719       44.4859439550       18.5408169774  MEMB      87              0.0000000000
      9682        87  POPC      H11A           24.1780211463       45.2901887111       18.8709398964  MEMB      87              0.0000000000
      9683        87  POPC      H11B           24.5462635834       44.2053354202       17.5156744790  MEMB      87              0.0000000000
      9684        87  POPC      P              27.1956802715       45.1908453518       17.3478045252  MEMB      87              0.0000000000
      9685        87  POPC      O13            27.9250739651       46.5160629148       17.3882900066  MEMB      87              0.0000000000
      9686        87  POPC      O14            26.5763147437       44.8269734982       16.0731060145  MEMB      87              0.0000000000
      9687        87  POPC      O12            26.1103391712       45.1787263242       18.5550229373  MEMB      87              0.0000000000
      9688        87  POPC      O11            28.3032834228       44.1210345339       17.5348524370  MEMB      87              0.0000000000
      9689        87  POPC      C1             29.2824340331       44.2321190437       18.6395389184  MEMB      87              0.0000000000
      9690        87  POPC      HA             28.7793494432       43.9213862964       19.5801089695  MEMB      87              0.0000000000
      9691        87  POPC      HB             29.5053579658       45.2977959320       18.8608046761  MEMB      87              0.0000000000
      9692        87  POPC      C2             30.6116476629       43.5055393493       18.3606629605  MEMB      87              0.0000000000
      9693        87  POPC      HS             31.4194353117       43.9465937821       18.9829734983  MEMB      87              0.0000000000
      9694        87  POPC      O21            31.0485127857       43.5737194890       17.0505122484  MEMB      87              0.0000000000
      9695        87  POPC      C21            31.6561972908       44.7139126238       16.7275005298  MEMB      87              0.0000000000
      9696        87  POPC      O22            32.0868528139       45.5078841399       17.5004273716  MEMB      87              0.0000000000
      9697        87  POPC      C22            31.7920772923       44.9282048465       15.2631827496  MEMB      87              0.0000000000
      9698        87  POPC      H2R            32.7758690813       45.4037500248       15.0623549764  MEMB      87              0.0000000000
      9699        87  POPC      H2S            31.0373745676       45.6114528167       14.8183042314  MEMB      87              0.0000000000
      9700        87  POPC      C3             30.5088783218       41.9423536243       18.6341844087  MEMB      87              0.0000000000
      9701        87  POPC      HX             30.1194484333       41.8971946634       19.6737160742  MEMB      87              0.0000000000
      9702        87  POPC      HY             31.5031256152       41.4466464995       18.6424079255  MEMB      87              0.0000000000
      9703        87  POPC      O31            29.6342738226       41.3050296799       17.6626418623  MEMB      87              0.0000000000
      9704        87  POPC      C31            28.3637800617       41.0906821008       18.1178431096  MEMB      87              0.0000000000
      9705        87  POPC      O32            27.9102090615       41.5093496356       19.1590139208  MEMB      87              0.0000000000
      9706        87  POPC      C32            27.5953148122       40.3847985223       17.0575282388  MEMB      87              0.0000000000
      9707        87  POPC      H2X            26.7182991829       39.8086541278       17.4225244866  MEMB      87              0.0000000000
      9708        87  POPC      H2Y            28.2677832428       39.6708843519       16.5355763849  MEMB      87              0.0000000000
      9709        87  POPC      C23            31.6533173079       43.5803511081       14.4705861485  MEMB      87              0.0000000000
      9710        87  POPC      H3R            32.0235593841       42.6556497221       14.9626926584  MEMB      87              0.0000000000
      9711        87  POPC      H3S            32.1839328287       43.7360032663       13.5069778043  MEMB      87              0.0000000000
      9712        87  POPC      C24            30.1522182523       43.2661371894       14.1377862246  MEMB      87              0.0000000000
      9713        87  POPC      H4R            29.6467562141       44.1099544072       13.6212577073  MEMB      87              0.0000000000
      9714        87  POPC      H4S            29.6250004520       43.0096808526       15.0814986352  MEMB      87              0.0000000000
      9715        87  POPC      C25            30.0926158096       41.9808525928       13.2065766567  MEMB      87              0.0000000000
      9716        87  POPC      H5R            29.1238549134       41.4809503899       13.4208678419  MEMB      87              0.0000000000
      9717        87  POPC      H5S            30.9781063881       41.4122485579       13.5628309212  MEMB      87              0.0000000000
      9718        87  POPC      C26            30.2670324421       42.3281699584       11.7567053120  MEMB      87              0.0000000000
      9719        87  POPC      H6R            31.1840622567       42.9050653066       11.5105979701  MEMB      87              0.0000000000
      9720        87  POPC      H6S            29.3810205123       42.8933384762       11.3963052201  MEMB      87              0.0000000000
      9721        87  POPC      C27            30.3770903812       41.0068464587       10.8993109000  MEMB      87              0.0000000000
      9722        87  POPC      H7R            29.4001436437       40.4865809076       10.9953328870  MEMB      87              0.0000000000
      9723        87  POPC      H7S            31.1654321620       40.3629064030       11.3444846918  MEMB      87              0.0000000000
      9724        87  POPC      C28            30.6304808664       41.2876633571        9.4458798786  MEMB      87              0.0000000000
      9725        87  POPC      H8R            30.6707820845       40.3330755313        8.8789070549  MEMB      87              0.0000000000
      9726        87  POPC      H8S            31.6163684815       41.7909955004        9.3509969870  MEMB      87              0.0000000000
      9727        87  POPC      C29            29.6578147278       42.1809606980        8.7203558999  MEMB      87              0.0000000000
      9728        87  POPC      H91            28.6793376120       41.6805306708        8.7667486129  MEMB      87              0.0000000000
      9729        87  POPC      C210           29.7749056255       43.2672334089        7.9279329307  MEMB      87              0.0000000000
      9730        87  POPC      H101           28.9568211011       43.7025307886        7.3352659245  MEMB      87              0.0000000000
      9731        87  POPC      C211           31.1460107476       43.7687341649        7.5777109648  MEMB      87              0.0000000000
      9732        87  POPC      H11R           31.8525551435       43.6857877862        8.4310781241  MEMB      87              0.0000000000
      9733        87  POPC      H11S           31.1685795348       44.7958574900        7.1548287917  MEMB      87              0.0000000000
      9734        87  POPC      C212           31.4968672800       42.9461512509        6.3546388226  MEMB      87              0.0000000000
      9735        87  POPC      H12R           31.6749958987       41.9057214208        6.7011895405  MEMB      87              0.0000000000
      9736        87  POPC      H12S           32.4957738740       43.3009115823        6.0219958336  MEMB      87              0.0000000000
      9737        87  POPC      C213           30.6177810652       42.9755060209        5.0794609223  MEMB      87              0.0000000000
      9738        87  POPC      H13R           30.5643194087       44.0563157371        4.8278400444  MEMB      87              0.0000000000
      9739        87  POPC      H13S           29.5769206998       42.6408023978        5.2767028034  MEMB      87              0.0000000000
      9740        87  POPC      C214           31.1822342033       42.1417112721        3.9325709890  MEMB      87              0.0000000000
      9741        87  POPC      H14R           31.3277127950       41.1182327122        4.3395702006  MEMB      87              0.0000000000
      9742        87  POPC      H14S           32.2366179863       42.3873700677        3.6830773574  MEMB      87              0.0000000000
      9743        87  POPC      C215           30.3324554538       41.8716704007        2.7201541377  MEMB      87              0.0000000000
      9744        87  POPC      H15R           29.9452893395       42.8567748443        2.3825260250  MEMB      87              0.0000000000
      9745        87  POPC      H15S           29.5071093259       41.2937236737        3.1882366066  MEMB      87              0.0000000000
      9746        87  POPC      C216           30.9084661613       40.9427977544        1.5532530291  MEMB      87              0.0000000000
      9747        87  POPC      H16R           31.5744387561       40.1755415842        2.0028299452  MEMB      87              0.0000000000
      9748        87  POPC      H16S           31.5581258614       41.5509569732        0.8881163213  MEMB      87              0.0000000000
      9749        87  POPC      C217           29.8065304371       40.3110233644        0.7494965667  MEMB      87              0.0000000000
      9750        87  POPC      H17R           28.9408210698       40.2019956549        1.4372327649  MEMB      87              0.0000000000
      9751        87  POPC      H17S           30.1969789520       39.2864190394        0.5704522812  MEMB      87              0.0000000000
      9752        87  POPC      C218           29.4565084239       41.0896185543       -0.5172045745  MEMB      87              0.0000000000
      9753        87  POPC      H18R           28.7797140561       40.4183907334       -1.0879258717  MEMB      87              0.0000000000
      9754        87  POPC      H18S           30.3987763154       41.1447721261       -1.1032189685  MEMB      87              0.0000000000
      9755        87  POPC      H18T           28.9332569570       42.0450990628       -0.2990639026  MEMB      87              0.0000000000
      9756        87  POPC      C33            27.0355260850       41.4631653622       16.0690511889  MEMB      87              0.0000000000
      9757        87  POPC      H3X            27.6067175056       42.4116890998       15.9775959570  MEMB      87              0.0000000000
      9758        87  POPC      H3Y            26.0758017316       41.8852045925       16.4366552085  MEMB      87              0.0000000000
      9759        87  POPC      C34            26.7790206631       40.7578128241       14.7771487739  MEMB      87              0.0000000000
      9760        87  POPC      H4X            26.0053460100       39.9728454542       14.9170599806  MEMB      87              0.0000000000
      9761        87  POPC      H4Y            27.7039804206       40.2269983404       14.4656911202  MEMB      87              0.0000000000
      9762        87  POPC      C35            26.2393378078       41.5901895180       13.6170510591  MEMB      87              0.0000000000
      9763        87  POPC      H5X            26.7605748832       42.5710106285       13.5920918958  MEMB      87              0.0000000000
      9764        87  POPC      H5Y            25.1980466427       41.9288360828       13.8050721156  MEMB      87              0.0000000000
      9765        87  POPC      C36            26.2772026740       40.9357332611       12.2393008367  MEMB      87              0.0000000000
      9766        87  POPC      H6X            25.7945736600       39.9370835692       12.1753530564  MEMB      87              0.0000000000
      9767        87  POPC      H6Y            27.3721593481       40.8652478547       12.0648808471  MEMB      87              0.0000000000
      9768        87  POPC      C37            25.7154064099       41.8269144584       11.1393009501  MEMB      87              0.0000000000
      9769        87  POPC      H7X            26.2478961896       42.8015131632       11.1087581059  MEMB      87              0.0000000000
      9770        87  POPC      H7Y            24.6160013647       41.9605943786       11.2273876559  MEMB      87              0.0000000000
      9771        87  POPC      C38            25.6614982664       41.2148213110        9.6862033469  MEMB      87              0.0000000000
      9772        87  POPC      H8X            25.1414749180       40.2331035654        9.6974655335  MEMB      87              0.0000000000
      9773        87  POPC      H8Y            26.7229550977       41.0509253892        9.4020057709  MEMB      87              0.0000000000
      9774        87  POPC      C39            25.0101075121       42.1706151033        8.6558199512  MEMB      87              0.0000000000
      9775        87  POPC      H9X            25.3525155770       43.2034665156        8.8800874116  MEMB      87              0.0000000000
      9776        87  POPC      H9Y            23.9401247266       42.0566495234        8.9323487485  MEMB      87              0.0000000000
      9777        87  POPC      C310           25.3064756548       41.7026133827        7.1841483143  MEMB      87              0.0000000000
      9778        87  POPC      H10X           24.5489134741       40.9193341328        6.9675975587  MEMB      87              0.0000000000
      9779        87  POPC      H10Y           26.3162030526       41.2557356154        7.0613802617  MEMB      87              0.0000000000
      9780        87  POPC      C311           25.1605434518       42.7419335530        6.0503629160  MEMB      87              0.0000000000
      9781        87  POPC      H11X           24.2163292976       43.3093618884        6.1946051895  MEMB      87              0.0000000000
      9782        87  POPC      H11Y           25.2833638594       42.2992537483        5.0387947813  MEMB      87              0.0000000000
      9783        87  POPC      C312           26.3434856154       43.7584344286        6.0397002521  MEMB      87              0.0000000000
      9784        87  POPC      H12X           27.2890708227       43.1767303688        6.0822429024  MEMB      87              0.0000000000
      9785        87  POPC      H12Y           26.4152984618       44.5680182878        6.7971547054  MEMB      87              0.0000000000
      9786        87  POPC      C313           26.4674565157       44.6463285057        4.7772776701  MEMB      87              0.0000000000
      9787        87  POPC      H13X           27.4688979851       45.1171864320        4.8759116878  MEMB      87              0.0000000000
      9788        87  POPC      H13Y           25.5966725342       45.3202514374        4.6293440923  MEMB      87              0.0000000000
      9789        87  POPC      C314           26.4766363350       43.8210599220        3.4158213577  MEMB      87              0.0000000000
      9790        87  POPC      H14X           25.6959344633       43.0377276595        3.3099151704  MEMB      87              0.0000000000
      9791        87  POPC      H14Y           27.4326356841       43.2563736029        3.3768867604  MEMB      87              0.0000000000
      9792        87  POPC      C315           26.4067781517       44.7109177385        2.2165661561  MEMB      87              0.0000000000
      9793        87  POPC      H15X           27.1557438457       45.4741445430        2.5179902096  MEMB      87              0.0000000000
      9794        87  POPC      H15Y           25.4441820080       45.1848343137        1.9282396333  MEMB      87              0.0000000000
      9795        87  POPC      C316           27.1487130382       44.1426957668        0.9758515175  MEMB      87              0.0000000000
      9796        87  POPC      H16X           26.8315521567       44.7335624831        0.0900726319  MEMB      87              0.0000000000
      9797        87  POPC      H16Y           26.8524320812       43.0773085141        0.8686636397  MEMB      87              0.0000000000
      9798        87  POPC      H16Z           28.2569673684       44.0836162089        1.0268588807  MEMB      87              0.0000000000
      9799        88  POPC      N              36.5592704109       32.7122118295       20.6391112619  MEMB      88              0.0000000000
      9800        88  POPC      C12            37.4485957644       32.9366578718       19.4560341830  MEMB      88              0.0000000000
      9801        88  POPC      H12A           37.9711816186       32.0054769114       19.2941510182  MEMB      88              0.0000000000
      9802        88  POPC      H12B           38.1862439122       33.6892587330       19.6923962631  MEMB      88              0.0000000000
      9803        88  POPC      C13            37.1310615799       31.7997735717       21.6897941667  MEMB      88              0.0000000000
      9804        88  POPC      H13A           38.2070998222       31.8143029426       21.7810666165  MEMB      88              0.0000000000
      9805        88  POPC      H13B           36.6084946851       32.1139772010       22.5811976344  MEMB      88              0.0000000000
      9806        88  POPC      H13C           36.7635569190       30.8101810185       21.4616562706  MEMB      88              0.0000000000
      9807        88  POPC      C14            36.4119953146       34.1134644309       21.3247042036  MEMB      88              0.0000000000
      9808        88  POPC      H14A           35.7052899041       34.0172651607       22.1356993402  MEMB      88              0.0000000000
      9809        88  POPC      H14B           37.4226863945       34.3775315808       21.5988795056  MEMB      88              0.0000000000
      9810        88  POPC      H14C           36.0570087299       34.6995296842       20.4898915871  MEMB      88              0.0000000000
      9811        88  POPC      C15            35.1798667733       32.1939753024       20.2007090536  MEMB      88              0.0000000000
      9812        88  POPC      H15A           35.3847611254       31.3547238617       19.5525768536  MEMB      88              0.0000000000
      9813        88  POPC      H15B           34.7102350075       32.9377994126       19.5741536743  MEMB      88              0.0000000000
      9814        88  POPC      H15C           34.7182254642       31.8613937401       21.1186834169  MEMB      88              0.0000000000
      9815        88  POPC      C11            36.7706571758       33.3209106499       18.1450776941  MEMB      88              0.0000000000
      9816        88  POPC      H11A           36.2266002820       32.4395019999       17.7432796745  MEMB      88              0.0000000000
      9817        88  POPC      H11B           37.5553533610       33.4547779484       17.3700599703  MEMB      88              0.0000000000
      9818        88  POPC      P              36.1981768506       35.6957219324       17.5021287510  MEMB      88              0.0000000000
      9819        88  POPC      O13            37.6292968205       35.8847226387       17.6117306596  MEMB      88              0.0000000000
      9820        88  POPC      O14            35.4381895418       36.8396224872       18.0268464051  MEMB      88              0.0000000000
      9821        88  POPC      O12            35.8350056748       34.4062144732       18.3342228029  MEMB      88              0.0000000000
      9822        88  POPC      O11            35.7465328264       35.4857432086       16.0696408183  MEMB      88              0.0000000000
      9823        88  POPC      C1             34.3328740197       35.2175669452       15.7503473320  MEMB      88              0.0000000000
      9824        88  POPC      HA             33.8333271523       36.1675282734       15.4633845291  MEMB      88              0.0000000000
      9825        88  POPC      HB             33.7246604337       34.8445117561       16.6019498787  MEMB      88              0.0000000000
      9826        88  POPC      C2             34.1823912462       34.1613097568       14.5501718652  MEMB      88              0.0000000000
      9827        88  POPC      HS             33.1546531071       33.7398927700       14.5721480651  MEMB      88              0.0000000000
      9828        88  POPC      O21            35.0712735435       33.1055871728       14.8635376007  MEMB      88              0.0000000000
      9829        88  POPC      C21            35.0782643188       32.0450815396       14.1643309413  MEMB      88              0.0000000000
      9830        88  POPC      O22            34.2435204456       31.6422810788       13.4248976532  MEMB      88              0.0000000000
      9831        88  POPC      C22            36.4466734032       31.4094676832       14.3752386987  MEMB      88              0.0000000000
      9832        88  POPC      H2R            36.5100240004       30.8044660434       15.3049058058  MEMB      88              0.0000000000
      9833        88  POPC      H2S            37.2206499697       32.1990301181       14.4841994671  MEMB      88              0.0000000000
      9834        88  POPC      C3             34.4642078580       34.8021592985       13.1878190119  MEMB      88              0.0000000000
      9835        88  POPC      HX             33.6642047806       35.5125980895       12.8884979933  MEMB      88              0.0000000000
      9836        88  POPC      HY             34.5058037938       34.1475264246       12.2911324679  MEMB      88              0.0000000000
      9837        88  POPC      O31            35.6452156510       35.6677515330       13.1988497827  MEMB      88              0.0000000000
      9838        88  POPC      C31            35.6165478245       36.9867851745       13.4180007274  MEMB      88              0.0000000000
      9839        88  POPC      O32            34.5770312653       37.6111358001       13.4870099814  MEMB      88              0.0000000000
      9840        88  POPC      C32            37.1066114991       37.4951193530       13.5199549478  MEMB      88              0.0000000000
      9841        88  POPC      H2X            37.7299848617       36.6210861377       13.8059488557  MEMB      88              0.0000000000
      9842        88  POPC      H2Y            37.1356998327       38.1204244719       14.4378157758  MEMB      88              0.0000000000
      9843        88  POPC      C23            36.9300882092       30.6638601094       13.0962370656  MEMB      88              0.0000000000
      9844        88  POPC      H3R            36.1538032374       29.8931473340       12.9020604326  MEMB      88              0.0000000000
      9845        88  POPC      H3S            37.8593269787       30.1537526096       13.4288424563  MEMB      88              0.0000000000
      9846        88  POPC      C24            37.2707255407       31.5974543987       11.9078175714  MEMB      88              0.0000000000
      9847        88  POPC      H4R            38.1461527987       32.2660571274       12.0524508990  MEMB      88              0.0000000000
      9848        88  POPC      H4S            36.3798251284       32.2386991159       11.7362874516  MEMB      88              0.0000000000
      9849        88  POPC      C25            37.5872721753       30.8611212623       10.6463353213  MEMB      88              0.0000000000
      9850        88  POPC      H5R            38.3801170171       30.0964292844       10.7911261562  MEMB      88              0.0000000000
      9851        88  POPC      H5S            37.9810826986       31.5857072547        9.9018824372  MEMB      88              0.0000000000
      9852        88  POPC      C26            36.3648234848       30.3308751003        9.8590621338  MEMB      88              0.0000000000
      9853        88  POPC      H6R            35.9643823247       29.5031438443       10.4826233416  MEMB      88              0.0000000000
      9854        88  POPC      H6S            36.8379606603       29.8768386172        8.9622271409  MEMB      88              0.0000000000
      9855        88  POPC      C27            35.3074454289       31.3671213992        9.3644646289  MEMB      88              0.0000000000
      9856        88  POPC      H7R            35.8326360950       32.1202958888        8.7389856947  MEMB      88              0.0000000000
      9857        88  POPC      H7S            34.9460628583       31.9321011287       10.2501964773  MEMB      88              0.0000000000
      9858        88  POPC      C28            34.1727824933       30.6728596999        8.5107776046  MEMB      88              0.0000000000
      9859        88  POPC      H8R            34.1076988995       29.5835564744        8.7193524080  MEMB      88              0.0000000000
      9860        88  POPC      H8S            34.4289423275       30.6311396906        7.4305171602  MEMB      88              0.0000000000
      9861        88  POPC      C29            32.8603826272       31.4487852808        8.6299320628  MEMB      88              0.0000000000
      9862        88  POPC      H91            32.1765018975       31.0877071796        9.4121918645  MEMB      88              0.0000000000
      9863        88  POPC      C210           32.4135806090       32.4055355067        7.7751975663  MEMB      88              0.0000000000
      9864        88  POPC      H101           31.3508521099       32.6552685503        7.9102598169  MEMB      88              0.0000000000
      9865        88  POPC      C211           33.0384373896       32.9935166193        6.5258287171  MEMB      88              0.0000000000
      9866        88  POPC      H11R           34.0830887832       33.2782036124        6.7747830129  MEMB      88              0.0000000000
      9867        88  POPC      H11S           32.5482482130       33.9366859631        6.2026155387  MEMB      88              0.0000000000
      9868        88  POPC      C212           33.1070044434       32.0379407474        5.2080544694  MEMB      88              0.0000000000
      9869        88  POPC      H12R           32.1611342006       31.8756814341        4.6483024116  MEMB      88              0.0000000000
      9870        88  POPC      H12S           33.2596385629       31.0083363540        5.5965631298  MEMB      88              0.0000000000
      9871        88  POPC      C213           34.2112081252       32.5573981353        4.2995556035  MEMB      88              0.0000000000
      9872        88  POPC      H13R           35.1657303253       32.3185160637        4.8154463234  MEMB      88              0.0000000000
      9873        88  POPC      H13S           34.1121803557       33.6489010759        4.1175232532  MEMB      88              0.0000000000
      9874        88  POPC      C214           34.1614841614       32.0490368761        2.8503592549  MEMB      88              0.0000000000
      9875        88  POPC      H14R           34.8914971942       32.6277864919        2.2450057322  MEMB      88              0.0000000000
      9876        88  POPC      H14S           33.1304336322       32.1800375074        2.4578091983  MEMB      88              0.0000000000
      9877        88  POPC      C215           34.4436398422       30.6019639043        2.8134828846  MEMB      88              0.0000000000
      9878        88  POPC      H15R           34.1465575746       30.2021587471        1.8203961275  MEMB      88              0.0000000000
      9879        88  POPC      H15S           33.8114512595       30.0785091522        3.5622505123  MEMB      88              0.0000000000
      9880        88  POPC      C216           35.8955462943       30.2464668668        2.9762148161  MEMB      88              0.0000000000
      9881        88  POPC      H16R           36.2444633569       30.5997833252        3.9700699844  MEMB      88              0.0000000000
      9882        88  POPC      H16S           36.5325121389       30.8549396527        2.2991951859  MEMB      88              0.0000000000
      9883        88  POPC      C217           36.1637669506       28.8121659739        2.5668473144  MEMB      88              0.0000000000
      9884        88  POPC      H17R           35.6424695305       28.5378562006        1.6248701446  MEMB      88              0.0000000000
      9885        88  POPC      H17S           35.6260034849       28.2324642032        3.3472814513  MEMB      88              0.0000000000
      9886        88  POPC      C218           37.5736243119       28.3186387854        2.5961199982  MEMB      88              0.0000000000
      9887        88  POPC      H18R           38.2992211398       28.9088339151        1.9965362505  MEMB      88              0.0000000000
      9888        88  POPC      H18S           37.6746372704       27.2653285235        2.2575132113  MEMB      88              0.0000000000
      9889        88  POPC      H18T           38.0084350756       28.3182036139        3.6185003813  MEMB      88              0.0000000000
      9890        88  POPC      C33            37.6037158041       38.3077300430       12.3019363651  MEMB      88              0.0000000000
      9891        88  POPC      H3X            38.6809741935       38.3879982881       12.5615378202  MEMB      88              0.0000000000
      9892        88  POPC      H3Y            37.1475373321       39.3187900911       12.3650214736  MEMB      88              0.0000000000
      9893        88  POPC      C34            37.3064724095       37.6705933447       10.9596281602  MEMB      88              0.0000000000
      9894        88  POPC      H4X            37.5966247227       38.5032545757       10.2837521150  MEMB      88              0.0000000000
      9895        88  POPC      H4Y            36.1995377588       37.5761363509       10.9499160511  MEMB      88              0.0000000000
      9896        88  POPC      C35            37.9806907622       36.3531606473       10.6237143952  MEMB      88              0.0000000000
      9897        88  POPC      H5X            37.5476998632       35.5826868287       11.2969230507  MEMB      88              0.0000000000
      9898        88  POPC      H5Y            39.0746084877       36.3945053442       10.8133342207  MEMB      88              0.0000000000
      9899        88  POPC      C36            37.7883734782       35.9273116689        9.1893998745  MEMB      88              0.0000000000
      9900        88  POPC      H6X            38.4404890628       35.0278502582        9.1953492707  MEMB      88              0.0000000000
      9901        88  POPC      H6Y            38.2862193897       36.5844896448        8.4446929978  MEMB      88              0.0000000000
      9902        88  POPC      C37            36.3396753330       35.4498400199        8.9488055734  MEMB      88              0.0000000000
      9903        88  POPC      H7X            35.6014237513       36.1757143057        9.3518104443  MEMB      88              0.0000000000
      9904        88  POPC      H7Y            36.1601383517       34.5239399737        9.5359997551  MEMB      88              0.0000000000
      9905        88  POPC      C38            36.0347440775       35.2239425213        7.4489146609  MEMB      88              0.0000000000
      9906        88  POPC      H8X            34.9264972185       35.2024965248        7.3737481628  MEMB      88              0.0000000000
      9907        88  POPC      H8Y            36.5033134985       34.2647404466        7.1411891212  MEMB      88              0.0000000000
      9908        88  POPC      C39            36.5084084839       36.3379949789        6.5146787017  MEMB      88              0.0000000000
      9909        88  POPC      H9X            37.6021199102       36.1592603941        6.4361277694  MEMB      88              0.0000000000
      9910        88  POPC      H9Y            36.2008448604       37.2999920739        6.9775904585  MEMB      88              0.0000000000
      9911        88  POPC      C310           36.0160448529       36.1742082301        5.0584267903  MEMB      88              0.0000000000
      9912        88  POPC      H10X           35.0188800918       35.6853471255        5.0900213015  MEMB      88              0.0000000000
      9913        88  POPC      H10Y           36.6495653578       35.3501918995        4.6660373152  MEMB      88              0.0000000000
      9914        88  POPC      C311           36.0473590161       37.3766016776        4.1427525108  MEMB      88              0.0000000000
      9915        88  POPC      H11X           37.0974576345       37.7393215921        4.1358267535  MEMB      88              0.0000000000
      9916        88  POPC      H11Y           35.4814682354       38.2614600123        4.5048494146  MEMB      88              0.0000000000
      9917        88  POPC      C312           35.6382906760       37.1985559592        2.6642078568  MEMB      88              0.0000000000
      9918        88  POPC      H12X           35.8958271609       37.9502113899        1.8876716215  MEMB      88              0.0000000000
      9919        88  POPC      H12Y           34.5688076141       36.9324091863        2.5238770261  MEMB      88              0.0000000000
      9920        88  POPC      C313           36.1635179344       35.9329410439        1.9629891427  MEMB      88              0.0000000000
      9921        88  POPC      H13X           35.6181795139       35.8352040696        0.9999876376  MEMB      88              0.0000000000
      9922        88  POPC      H13Y           35.8592379243       35.0091643674        2.4999918455  MEMB      88              0.0000000000
      9923        88  POPC      C314           37.6558248996       35.7957160644        1.9049744943  MEMB      88              0.0000000000
      9924        88  POPC      H14X           38.1591280954       36.1651354382        2.8239622507  MEMB      88              0.0000000000
      9925        88  POPC      H14Y           37.9502477667       36.3806381098        1.0074772789  MEMB      88              0.0000000000
      9926        88  POPC      C315           38.1034053225       34.3324818354        1.7503639443  MEMB      88              0.0000000000
      9927        88  POPC      H15X           37.7604825590       33.7880071136        2.6560514131  MEMB      88              0.0000000000
      9928        88  POPC      H15Y           39.2129050746       34.3014641261        1.7990387575  MEMB      88              0.0000000000
      9929        88  POPC      C316           37.5855844052       33.6257741939        0.4421152927  MEMB      88              0.0000000000
      9930        88  POPC      H16X           38.2069785753       33.8516369902       -0.4507325273  MEMB      88              0.0000000000
      9931        88  POPC      H16Y           36.5343003790       33.9636729966        0.3198568959  MEMB      88              0.0000000000
      9932        88  POPC      H16Z           37.7350744979       32.5290588051        0.5379742007  MEMB      88              0.0000000000
      9933        89  POPC      N             -39.4728014331       31.0965021833       19.0312844493  MEMB      89              0.0000000000
      9934        89  POPC      C12           -40.4841237012       31.0193129332       17.9297714698  MEMB      89              0.0000000000
      9935        89  POPC      H12A          -40.0948361974       30.3693571513       17.1600879298  MEMB      89              0.0000000000
      9936        89  POPC      H12B          -40.5414171162       32.0349695660       17.5670604741  MEMB      89              0.0000000000
      9937        89  POPC      C13           -40.0047512513       32.1327566845       19.9821124120  MEMB      89              0.0000000000
      9938        89  POPC      H13A          -41.0738170160       31.9959862970       20.0513390616  MEMB      89              0.0000000000
      9939        89  POPC      H13B          -39.5429390297       32.1171072992       20.9582704486  MEMB      89              0.0000000000
      9940        89  POPC      H13C          -39.7506341222       33.0994312192       19.5730099394  MEMB      89              0.0000000000
      9941        89  POPC      C14           -39.1650560410       29.7475985791       19.6754751493  MEMB      89              0.0000000000
      9942        89  POPC      H14A          -38.2481049186       29.8891883390       20.2282434101  MEMB      89              0.0000000000
      9943        89  POPC      H14B          -39.9602557820       29.3739093605       20.3034989016  MEMB      89              0.0000000000
      9944        89  POPC      H14C          -38.9871053327       29.0319301255       18.8864553764  MEMB      89              0.0000000000
      9945        89  POPC      C15           -38.2162808661       31.5686415213       18.4475467227  MEMB      89              0.0000000000
      9946        89  POPC      H15A          -38.3746011329       32.3156067467       17.6837549471  MEMB      89              0.0000000000
      9947        89  POPC      H15B          -37.7933339440       30.6173600109       18.1601806839  MEMB      89              0.0000000000
      9948        89  POPC      H15C          -37.4702626221       31.8290499089       19.1837835830  MEMB      89              0.0000000000
      9949        89  POPC      C11           -41.9705639454       30.5957919757       18.2998586748  MEMB      89              0.0000000000
      9950        89  POPC      H11A          -42.5486315402       30.5602554842       17.3517573921  MEMB      89              0.0000000000
      9951        89  POPC      H11B          -42.3520303141       31.4534420747       18.8941992624  MEMB      89              0.0000000000
      9952        89  POPC      P             -43.3808367626       28.6549993131       19.2214948890  MEMB      89              0.0000000000
      9953        89  POPC      O13           -44.2914621769       29.7623495865       19.5993436330  MEMB      89              0.0000000000
      9954        89  POPC      O14           -43.2817056513       27.4785487416       20.1177943467  MEMB      89              0.0000000000
      9955        89  POPC      O12           -41.9933111197       29.3636315528       18.9904358423  MEMB      89              0.0000000000
      9956        89  POPC      O11           -43.7555767472       28.1487626311       17.7048824120  MEMB      89              0.0000000000
      9957        89  POPC      C1            -43.2354073355       26.9855614332       17.1514372801  MEMB      89              0.0000000000
      9958        89  POPC      HA            -44.0504723202       26.2613067421       16.9382585672  MEMB      89              0.0000000000
      9959        89  POPC      HB            -42.4569796133       26.5188426547       17.7921749858  MEMB      89              0.0000000000
      9960        89  POPC      C2            -42.4638062395       27.3718747992       15.8584775651  MEMB      89              0.0000000000
      9961        89  POPC      HS            -41.6564242810       28.0878558127       16.1227245741  MEMB      89              0.0000000000
      9962        89  POPC      O21           -43.3674470081       27.8968898974       14.9239395669  MEMB      89              0.0000000000
      9963        89  POPC      C21           -43.1248707985       29.1014423386       14.4451929029  MEMB      89              0.0000000000
      9964        89  POPC      O22           -42.1424277352       29.7692654355       14.7662245398  MEMB      89              0.0000000000
      9965        89  POPC      C22           -44.2246813202       29.4671039233       13.4486476413  MEMB      89              0.0000000000
      9966        89  POPC      H2R           -44.9952719448       30.0167361793       14.0303823410  MEMB      89              0.0000000000
      9967        89  POPC      H2S           -44.5782714309       28.4640594287       13.1274051476  MEMB      89              0.0000000000
      9968        89  POPC      C3            -41.8228054548       26.0929732629       15.2705076170  MEMB      89              0.0000000000
      9969        89  POPC      HX            -42.5850445774       25.2858606048       15.2271299299  MEMB      89              0.0000000000
      9970        89  POPC      HY            -41.0532788957       25.6512064454       15.9390822105  MEMB      89              0.0000000000
      9971        89  POPC      O31           -41.4079073791       26.1943215551       13.9074632763  MEMB      89              0.0000000000
      9972        89  POPC      C31           -40.1044782073       26.2456909584       13.7157457700  MEMB      89              0.0000000000
      9973        89  POPC      O32           -39.2837399153       26.4721851410       14.6351390759  MEMB      89              0.0000000000
      9974        89  POPC      C32           -39.8243630823       25.9966713476       12.2074711469  MEMB      89              0.0000000000
      9975        89  POPC      H2X           -40.7412428240       26.2736214687       11.6444869988  MEMB      89              0.0000000000
      9976        89  POPC      H2Y           -39.6097282869       24.9274613014       11.9952390998  MEMB      89              0.0000000000
      9977        89  POPC      C23           -43.6889399941       30.2205181748       12.1678309101  MEMB      89              0.0000000000
      9978        89  POPC      H3R           -42.9046073225       30.9382272610       12.4903783992  MEMB      89              0.0000000000
      9979        89  POPC      H3S           -44.4471164943       30.8143220007       11.6138575397  MEMB      89              0.0000000000
      9980        89  POPC      C24           -43.0782050701       29.1977932780       11.1062299219  MEMB      89              0.0000000000
      9981        89  POPC      H4R           -43.8607695989       28.4351441174       10.9055309574  MEMB      89              0.0000000000
      9982        89  POPC      H4S           -42.2296008836       28.6768944581       11.5990344273  MEMB      89              0.0000000000
      9983        89  POPC      C25           -42.4874044937       29.8818464709        9.8557151204  MEMB      89              0.0000000000
      9984        89  POPC      H5R           -43.2151559442       30.1469099276        9.0591976217  MEMB      89              0.0000000000
      9985        89  POPC      H5S           -41.7218471486       29.2054697762        9.4189567304  MEMB      89              0.0000000000
      9986        89  POPC      C26           -41.7315115310       31.2724853210       10.1106604322  MEMB      89              0.0000000000
      9987        89  POPC      H6R           -41.1155186459       31.0934314706       11.0177506757  MEMB      89              0.0000000000
      9988        89  POPC      H6S           -42.3173092805       32.1718987998       10.3973955474  MEMB      89              0.0000000000
      9989        89  POPC      C27           -40.7824501426       31.6084175976        9.0060920262  MEMB      89              0.0000000000
      9990        89  POPC      H7R           -40.1816753629       30.7040062629        8.7706543952  MEMB      89              0.0000000000
      9991        89  POPC      H7S           -39.9823654200       32.3115030846        9.3220922870  MEMB      89              0.0000000000
      9992        89  POPC      C28           -41.4189874727       32.1143693806        7.7395472543  MEMB      89              0.0000000000
      9993        89  POPC      H8R           -40.5794526120       32.6353522286        7.2315324024  MEMB      89              0.0000000000
      9994        89  POPC      H8S           -42.2555170417       32.8343471066        7.8667136479  MEMB      89              0.0000000000
      9995        89  POPC      C29           -41.9728723801       31.1034634336        6.8341691979  MEMB      89              0.0000000000
      9996        89  POPC      H91           -43.0327960170       30.8301131091        6.9429890088  MEMB      89              0.0000000000
      9997        89  POPC      C210          -41.3241232022       30.4794297787        5.8142969178  MEMB      89              0.0000000000
      9998        89  POPC      H101          -41.8971156763       29.7384343679        5.2375777932  MEMB      89              0.0000000000
      9999        89  POPC      C211          -39.9184030764       30.7390071815        5.4390721994  MEMB      89              0.0000000000
     10000        89  POPC      H11R          -39.2920755357       29.8214065349        5.4324530167  MEMB      89              0.0000000000
     10001        89  POPC      H11S          -39.2839758803       31.2837242025        6.1705817479  MEMB      89              0.0000000000
     10002        89  POPC      C212          -39.8503296671       31.6592500642        4.1731188818  MEMB      89              0.0000000000
     10003        89  POPC      H12R          -38.8404360830       32.0553093225        3.9331746344  MEMB      89              0.0000000000
     10004        89  POPC      H12S          -40.5025098267       32.5520968500        4.2817777643  MEMB      89              0.0000000000
     10005        89  POPC      C213          -40.3547072148       30.9589383130        2.8644476760  MEMB      89              0.0000000000
     10006        89  POPC      H13R          -40.3837401071       31.7597595924        2.0949261055  MEMB      89              0.0000000000
     10007        89  POPC      H13S          -41.4307984567       30.6837281264        2.8891075512  MEMB      89              0.0000000000
     10008        89  POPC      C214          -39.5087685287       29.6995799765        2.5291535780  MEMB      89              0.0000000000
     10009        89  POPC      H14R          -39.8763266205       28.8780001714        3.1804804592  MEMB      89              0.0000000000
     10010        89  POPC      H14S          -38.4688504296       30.0105867557        2.7661473610  MEMB      89              0.0000000000
     10011        89  POPC      C215          -39.4651493916       29.1646273361        1.0528015027  MEMB      89              0.0000000000
     10012        89  POPC      H15R          -38.5810172992       28.4933924828        1.0072469512  MEMB      89              0.0000000000
     10013        89  POPC      H15S          -39.1445773969       29.9688214940        0.3565050223  MEMB      89              0.0000000000
     10014        89  POPC      C216          -40.7533557398       28.3560129031        0.5257425105  MEMB      89              0.0000000000
     10015        89  POPC      H16R          -41.5710696752       29.0686412730        0.2852719161  MEMB      89              0.0000000000
     10016        89  POPC      H16S          -41.0168300380       27.6644635398        1.3543911551  MEMB      89              0.0000000000
     10017        89  POPC      C217          -40.4458715616       27.7248887605       -0.8428894869  MEMB      89              0.0000000000
     10018        89  POPC      H17R          -39.5835641993       27.0601577367       -0.6218028167  MEMB      89              0.0000000000
     10019        89  POPC      H17S          -40.0971322865       28.4892542559       -1.5698345174  MEMB      89              0.0000000000
     10020        89  POPC      C218          -41.5247978405       26.7077803163       -1.4373549332  MEMB      89              0.0000000000
     10021        89  POPC      H18R          -41.0706932134       26.1649237659       -2.2937523156  MEMB      89              0.0000000000
     10022        89  POPC      H18S          -42.4251321088       27.2745572303       -1.7574845810  MEMB      89              0.0000000000
     10023        89  POPC      H18T          -41.8611371881       26.0039427009       -0.6462741195  MEMB      89              0.0000000000
     10024        89  POPC      C33           -38.6643060947       26.9931394008       11.7573152548  MEMB      89              0.0000000000
     10025        89  POPC      H3X           -37.8440340601       26.7164374944       12.4536704403  MEMB      89              0.0000000000
     10026        89  POPC      H3Y           -39.0030372286       28.0458448826       11.8640553587  MEMB      89              0.0000000000
     10027        89  POPC      C34           -38.0217564126       26.7651219409       10.4071846707  MEMB      89              0.0000000000
     10028        89  POPC      H4X           -37.4274566579       25.8291945398       10.3352943299  MEMB      89              0.0000000000
     10029        89  POPC      H4Y           -37.3355948378       27.5902686616       10.1197205623  MEMB      89              0.0000000000
     10030        89  POPC      C35           -39.0422299213       26.4552965619        9.2570507368  MEMB      89              0.0000000000
     10031        89  POPC      H5X           -39.6944957652       27.3487669412        9.1541861235  MEMB      89              0.0000000000
     10032        89  POPC      H5Y           -39.6733069134       25.6106690301        9.6072899722  MEMB      89              0.0000000000
     10033        89  POPC      C36           -38.4390952164       26.1537996867        7.9158478189  MEMB      89              0.0000000000
     10034        89  POPC      H6X           -37.9453297006       25.1585580364        7.9124925522  MEMB      89              0.0000000000
     10035        89  POPC      H6Y           -37.6644617290       26.9283967455        7.7307447470  MEMB      89              0.0000000000
     10036        89  POPC      C37           -39.4895429953       26.3445934712        6.7636511279  MEMB      89              0.0000000000
     10037        89  POPC      H7X           -38.9722307092       26.4932556927        5.7917411627  MEMB      89              0.0000000000
     10038        89  POPC      H7Y           -40.0081325095       27.2769713704        7.0735819242  MEMB      89              0.0000000000
     10039        89  POPC      C38           -40.4442732975       25.1775126691        6.5961329568  MEMB      89              0.0000000000
     10040        89  POPC      H8X           -40.9134714669       25.0345370080        7.5929937432  MEMB      89              0.0000000000
     10041        89  POPC      H8Y           -39.8653012458       24.3185803204        6.1944521221  MEMB      89              0.0000000000
     10042        89  POPC      C39           -41.5009703852       25.4856033416        5.5369271303  MEMB      89              0.0000000000
     10043        89  POPC      H9X           -41.8253179936       24.5576212617        5.0192699730  MEMB      89              0.0000000000
     10044        89  POPC      H9Y           -41.0170707552       26.0450610457        4.7079706049  MEMB      89              0.0000000000
     10045        89  POPC      C310          -42.7259770371       26.3026583993        6.0428034154  MEMB      89              0.0000000000
     10046        89  POPC      H10X          -42.3438292327       26.9490934060        6.8615863314  MEMB      89              0.0000000000
     10047        89  POPC      H10Y          -43.5736608935       25.6569516167        6.3571525629  MEMB      89              0.0000000000
     10048        89  POPC      C311          -43.3894253180       27.1770408659        4.9252707963  MEMB      89              0.0000000000
     10049        89  POPC      H11X          -43.5109818431       26.4142902649        4.1266737711  MEMB      89              0.0000000000
     10050        89  POPC      H11Y          -42.7689811224       28.0620178389        4.6680047902  MEMB      89              0.0000000000
     10051        89  POPC      C312          -44.8274267581       27.6764774502        5.1327436796  MEMB      89              0.0000000000
     10052        89  POPC      H12X          -45.0806793188       28.4181680409        5.9201942454  MEMB      89              0.0000000000
     10053        89  POPC      H12Y          -45.4835479183       26.8033067346        5.3362110423  MEMB      89              0.0000000000
     10054        89  POPC      C313          -45.2635105341       28.4661212488        3.8334504446  MEMB      89              0.0000000000
     10055        89  POPC      H13X          -46.3388501607       28.3184610169        3.5964649937  MEMB      89              0.0000000000
     10056        89  POPC      H13Y          -44.7159645650       28.0001386829        2.9864713339  MEMB      89              0.0000000000
     10057        89  POPC      C314          -44.9004775730       29.9553604334        3.8804011510  MEMB      89              0.0000000000
     10058        89  POPC      H14X          -43.8093601267       29.9152637576        4.0857682302  MEMB      89              0.0000000000
     10059        89  POPC      H14Y          -45.4001034889       30.3884477056        4.7732235164  MEMB      89              0.0000000000
     10060        89  POPC      C315          -45.1149690620       30.7538991100        2.6062176439  MEMB      89              0.0000000000
     10061        89  POPC      H15X          -44.7367211427       31.7911550485        2.7301100692  MEMB      89              0.0000000000
     10062        89  POPC      H15Y          -46.2025681450       30.8471779794        2.3994596880  MEMB      89              0.0000000000
     10063        89  POPC      C316          -44.4540730176       30.2962073689        1.3566880025  MEMB      89              0.0000000000
     10064        89  POPC      H16X          -43.6325927489       30.9952991442        1.0906774924  MEMB      89              0.0000000000
     10065        89  POPC      H16Y          -45.2030494238       30.3445886274        0.5375341544  MEMB      89              0.0000000000
     10066        89  POPC      H16Z          -44.1141530924       29.2387352588        1.3337053903  MEMB      89              0.0000000000
     10067        90  POPC      N              16.2374806388      -50.8630876844       19.2548342807  MEMB      90              0.0000000000
     10068        90  POPC      C12            17.2938699996      -50.8342220510       18.2055815137  MEMB      90              0.0000000000
     10069        90  POPC      H12A           17.0415099525      -50.1295766267       17.4269999586  MEMB      90              0.0000000000
     10070        90  POPC      H12B           17.1295407043      -51.7895180763       17.7293404221  MEMB      90              0.0000000000
     10071        90  POPC      C13            16.2324487290      -49.6493036509       20.1034302994  MEMB      90              0.0000000000
     10072        90  POPC      H13A           16.9142433047      -49.6541933046       20.9410054913  MEMB      90              0.0000000000
     10073        90  POPC      H13B           16.4541709010      -48.7547621335       19.5403718866  MEMB      90              0.0000000000
     10074        90  POPC      H13C           15.2239559443      -49.4584395521       20.4394557533  MEMB      90              0.0000000000
     10075        90  POPC      C14            14.8718632551      -50.7266962477       18.5231860748  MEMB      90              0.0000000000
     10076        90  POPC      H14A           14.0438317327      -50.7936957749       19.2133130932  MEMB      90              0.0000000000
     10077        90  POPC      H14B           14.7661264304      -49.7457539037       18.0839006651  MEMB      90              0.0000000000
     10078        90  POPC      H14C           14.7874211942      -51.4723695678       17.7465001462  MEMB      90              0.0000000000
     10079        90  POPC      C15            16.3288486428      -52.1745319639       20.0456028324  MEMB      90              0.0000000000
     10080        90  POPC      H15A           16.3448031418      -53.0389261441       19.3983252598  MEMB      90              0.0000000000
     10081        90  POPC      H15B           15.5953476963      -52.2097972190       20.8375198810  MEMB      90              0.0000000000
     10082        90  POPC      H15C           17.2581556412      -52.2700177931       20.5875168346  MEMB      90              0.0000000000
     10083        90  POPC      C11            18.7784420343      -50.6840191010       18.5324604976  MEMB      90              0.0000000000
     10084        90  POPC      H11A           19.3662159433      -50.6103957705       17.5925548934  MEMB      90              0.0000000000
     10085        90  POPC      H11B           18.9881269896      -51.6839321884       18.9689542667  MEMB      90              0.0000000000
     10086        90  POPC      P              19.3267777113      -48.1762976404       18.9111419660  MEMB      90              0.0000000000
     10087        90  POPC      O13            20.7778435130      -47.8563413959       18.8971865436  MEMB      90              0.0000000000
     10088        90  POPC      O14            18.5479569669      -47.1487889341       19.6696234469  MEMB      90              0.0000000000
     10089        90  POPC      O12            19.0229734864      -49.5758875697       19.4808668940  MEMB      90              0.0000000000
     10090        90  POPC      O11            18.9231702227      -48.1871712611       17.3760856520  MEMB      90              0.0000000000
     10091        90  POPC      C1             18.2166615283      -47.0711894694       16.7389426455  MEMB      90              0.0000000000
     10092        90  POPC      HA             18.9547756965      -46.2472687574       16.6356793983  MEMB      90              0.0000000000
     10093        90  POPC      HB             17.3839814352      -46.8482754590       17.4398520768  MEMB      90              0.0000000000
     10094        90  POPC      C2             17.6619587496      -47.3458072694       15.3769674850  MEMB      90              0.0000000000
     10095        90  POPC      HS             16.7554201475      -46.7887691885       15.0572529249  MEMB      90              0.0000000000
     10096        90  POPC      O21            17.4077375816      -48.7718104813       15.1593361448  MEMB      90              0.0000000000
     10097        90  POPC      C21            16.1722536413      -49.2237289709       14.7507827422  MEMB      90              0.0000000000
     10098        90  POPC      O22            15.1131718570      -48.6250043645       14.8150273221  MEMB      90              0.0000000000
     10099        90  POPC      C22            16.4187607602      -50.6380312956       14.1535969558  MEMB      90              0.0000000000
     10100        90  POPC      H2R            15.4484233957      -51.1519565417       14.3228522741  MEMB      90              0.0000000000
     10101        90  POPC      H2S            17.0776954041      -51.2694874375       14.7871502331  MEMB      90              0.0000000000
     10102        90  POPC      C3             18.6132544669      -46.9253715916       14.2697630767  MEMB      90              0.0000000000
     10103        90  POPC      HX             19.6477701136      -47.3132309364       14.3866544070  MEMB      90              0.0000000000
     10104        90  POPC      HY             18.7109621262      -45.8187321035       14.2808756030  MEMB      90              0.0000000000
     10105        90  POPC      O31            18.2176932045      -47.4784777664       12.9771823854  MEMB      90              0.0000000000
     10106        90  POPC      C31            17.4679107813      -46.6503154763       12.2142530962  MEMB      90              0.0000000000
     10107        90  POPC      O32            17.0582725687      -45.5835271310       12.5644612357  MEMB      90              0.0000000000
     10108        90  POPC      C32            17.0894742206      -47.3556066619       10.9554548632  MEMB      90              0.0000000000
     10109        90  POPC      H2X            16.5430798124      -48.3048794523       11.1416141675  MEMB      90              0.0000000000
     10110        90  POPC      H2Y            18.0224838891      -47.6639192136       10.4370368744  MEMB      90              0.0000000000
     10111        90  POPC      C23            17.0437783716      -50.5643294977       12.7655404711  MEMB      90              0.0000000000
     10112        90  POPC      H3R            17.8564730990      -49.8068162336       12.7702404704  MEMB      90              0.0000000000
     10113        90  POPC      H3S            16.2263267524      -50.1601573366       12.1309236592  MEMB      90              0.0000000000
     10114        90  POPC      C24            17.4971752721      -51.8337133608       12.1046823387  MEMB      90              0.0000000000
     10115        90  POPC      H4R            16.7416512456      -52.6134504660       12.3402973576  MEMB      90              0.0000000000
     10116        90  POPC      H4S            18.4115363898      -52.2263271129       12.5987669391  MEMB      90              0.0000000000
     10117        90  POPC      C25            17.5814077090      -51.7638852046       10.6130550220  MEMB      90              0.0000000000
     10118        90  POPC      H5R            16.4868345088      -51.6535438892       10.4579581550  MEMB      90              0.0000000000
     10119        90  POPC      H5S            17.7790593997      -52.8001605814       10.2646474080  MEMB      90              0.0000000000
     10120        90  POPC      C26            18.5905162241      -50.7224411352       10.0633943169  MEMB      90              0.0000000000
     10121        90  POPC      H6R            18.4219766175      -49.8544593635       10.7360929185  MEMB      90              0.0000000000
     10122        90  POPC      H6S            18.3006504728      -50.4572965098        9.0241655998  MEMB      90              0.0000000000
     10123        90  POPC      C27            20.0917485771      -51.0645114587       10.2167498188  MEMB      90              0.0000000000
     10124        90  POPC      H7R            20.2904420061      -51.9685620337        9.6023116490  MEMB      90              0.0000000000
     10125        90  POPC      H7S            20.3916861859      -51.3144333505       11.2568928541  MEMB      90              0.0000000000
     10126        90  POPC      C28            21.1393327685      -50.0001753327        9.6254644702  MEMB      90              0.0000000000
     10127        90  POPC      H8R            20.7891760657      -49.7508368369        8.6009933599  MEMB      90              0.0000000000
     10128        90  POPC      H8S            22.1557660673      -50.4427773716        9.5527476000  MEMB      90              0.0000000000
     10129        90  POPC      C29            21.4094887662      -48.6941652718       10.3630333280  MEMB      90              0.0000000000
     10130        90  POPC      H91            22.0613762354      -48.7608676347       11.2465455930  MEMB      90              0.0000000000
     10131        90  POPC      C210           20.9611018763      -47.4331474180       10.0356252590  MEMB      90              0.0000000000
     10132        90  POPC      H101           21.1620290664      -46.6666895611       10.7986263074  MEMB      90              0.0000000000
     10133        90  POPC      C211           20.0854758984      -46.8976871574        8.9598988491  MEMB      90              0.0000000000
     10134        90  POPC      H11R           19.3393563128      -46.1790359763        9.3613543520  MEMB      90              0.0000000000
     10135        90  POPC      H11S           19.5029962222      -47.6946143339        8.4500499299  MEMB      90              0.0000000000
     10136        90  POPC      C212           20.8299371767      -46.0403963710        7.8980488356  MEMB      90              0.0000000000
     10137        90  POPC      H12R           21.7116230092      -46.6429768448        7.5917027097  MEMB      90              0.0000000000
     10138        90  POPC      H12S           21.2678126875      -45.1689062253        8.4301111978  MEMB      90              0.0000000000
     10139        90  POPC      C213           20.0702219867      -45.4088054179        6.7236341735  MEMB      90              0.0000000000
     10140        90  POPC      H13R           20.5832873383      -44.5236759848        6.2904710973  MEMB      90              0.0000000000
     10141        90  POPC      H13S           19.1727656683      -44.9435485034        7.1845344803  MEMB      90              0.0000000000
     10142        90  POPC      C214           19.7292572387      -46.2795491737        5.5105833689  MEMB      90              0.0000000000
     10143        90  POPC      H14R           19.2822754470      -47.2170199519        5.9051427381  MEMB      90              0.0000000000
     10144        90  POPC      H14S           20.6556866728      -46.5235726590        4.9479984652  MEMB      90              0.0000000000
     10145        90  POPC      C215           18.7211152553      -45.6700486257        4.4414903549  MEMB      90              0.0000000000
     10146        90  POPC      H15R           19.0670808517      -44.6837069301        4.0649824870  MEMB      90              0.0000000000
     10147        90  POPC      H15S           17.7646292787      -45.5341644483        4.9901177969  MEMB      90              0.0000000000
     10148        90  POPC      C216           18.2770084434      -46.6511165922        3.3441563424  MEMB      90              0.0000000000
     10149        90  POPC      H16R           17.5420475989      -46.2227418610        2.6295599360  MEMB      90              0.0000000000
     10150        90  POPC      H16S           17.8088157760      -47.5838573994        3.7250912030  MEMB      90              0.0000000000
     10151        90  POPC      C217           19.4117957299      -47.0073227404        2.3102148101  MEMB      90              0.0000000000
     10152        90  POPC      H17R           20.0648313158      -47.8023652096        2.7294673593  MEMB      90              0.0000000000
     10153        90  POPC      H17S           20.1306539691      -46.1810021086        2.1237784186  MEMB      90              0.0000000000
     10154        90  POPC      C218           19.0194500892      -47.5813480459        0.9550129435  MEMB      90              0.0000000000
     10155        90  POPC      H18R           18.3265827511      -48.4492307093        0.9228360499  MEMB      90              0.0000000000
     10156        90  POPC      H18S           19.9022180437      -47.9894514486        0.4178970973  MEMB      90              0.0000000000
     10157        90  POPC      H18T           18.5283759204      -46.8261258953        0.3047771615  MEMB      90              0.0000000000
     10158        90  POPC      C33            16.3137304220      -46.4270643685        9.9458450971  MEMB      90              0.0000000000
     10159        90  POPC      H3X            17.0066754212      -45.5627752012        9.8612728306  MEMB      90              0.0000000000
     10160        90  POPC      H3Y            15.3511037721      -46.2991228798       10.4855694971  MEMB      90              0.0000000000
     10161        90  POPC      C34            16.1782178354      -47.0674497951        8.5887790237  MEMB      90              0.0000000000
     10162        90  POPC      H4X            17.1383196702      -47.4158520367        8.1515816550  MEMB      90              0.0000000000
     10163        90  POPC      H4Y            15.6514911460      -46.3386672595        7.9362788667  MEMB      90              0.0000000000
     10164        90  POPC      C35            15.2263542998      -48.2551755932        8.6260798347  MEMB      90              0.0000000000
     10165        90  POPC      H5X            14.3209773274      -47.9098215839        9.1695359796  MEMB      90              0.0000000000
     10166        90  POPC      H5Y            15.6576710582      -49.0275074104        9.2982333568  MEMB      90              0.0000000000
     10167        90  POPC      C36            14.9702499095      -48.8714266132        7.2212197151  MEMB      90              0.0000000000
     10168        90  POPC      H6X            15.6425489340      -49.7454180728        7.0853006038  MEMB      90              0.0000000000
     10169        90  POPC      H6Y            15.1332115548      -48.0069918470        6.5426056566  MEMB      90              0.0000000000
     10170        90  POPC      C37            13.4922746159      -49.2393936499        6.9659059111  MEMB      90              0.0000000000
     10171        90  POPC      H7X            12.8603830662      -48.3387017181        7.1201407894  MEMB      90              0.0000000000
     10172        90  POPC      H7Y            13.0815371683      -50.0564662784        7.5967854518  MEMB      90              0.0000000000
     10173        90  POPC      C38            13.2345108240      -49.7295251298        5.5592865771  MEMB      90              0.0000000000
     10174        90  POPC      H8X            13.9310987476      -49.1965130658        4.8773888495  MEMB      90              0.0000000000
     10175        90  POPC      H8Y            12.1725528096      -49.5546473811        5.2836351791  MEMB      90              0.0000000000
     10176        90  POPC      C39            13.4017398707      -51.2371938153        5.4273982877  MEMB      90              0.0000000000
     10177        90  POPC      H9X            12.7748157819      -51.6297255812        6.2563771411  MEMB      90              0.0000000000
     10178        90  POPC      H9Y            14.4559278341      -51.5821149324        5.4909438216  MEMB      90              0.0000000000
     10179        90  POPC      C310           12.9366450754      -51.8331139440        4.0568308627  MEMB      90              0.0000000000
     10180        90  POPC      H10X           11.8515540054      -51.6203254296        3.9490372888  MEMB      90              0.0000000000
     10181        90  POPC      H10Y           13.1455142812      -52.9241441762        4.0381827774  MEMB      90              0.0000000000
     10182        90  POPC      C311           13.5918998784      -51.1814754998        2.7822814506  MEMB      90              0.0000000000
     10183        90  POPC      H11X           13.5417664248      -50.0779548968        2.9008152539  MEMB      90              0.0000000000
     10184        90  POPC      H11Y           13.0229198297      -51.5247568655        1.8919215449  MEMB      90              0.0000000000
     10185        90  POPC      C312           15.0759633441      -51.6259955599        2.6364354478  MEMB      90              0.0000000000
     10186        90  POPC      H12X           15.0765391522      -52.6735067006        2.2662439113  MEMB      90              0.0000000000
     10187        90  POPC      H12Y           15.5196461654      -51.5313374828        3.6505873769  MEMB      90              0.0000000000
     10188        90  POPC      C313           15.8582423890      -50.7902542799        1.6533931128  MEMB      90              0.0000000000
     10189        90  POPC      H13X           15.8511730185      -49.7712035530        2.0958936005  MEMB      90              0.0000000000
     10190        90  POPC      H13Y           15.1868031876      -50.7610179726        0.7687265997  MEMB      90              0.0000000000
     10191        90  POPC      C314           17.2062510377      -51.4422666253        1.3929246830  MEMB      90              0.0000000000
     10192        90  POPC      H14X           17.5597790383      -50.7278574040        0.6190006919  MEMB      90              0.0000000000
     10193        90  POPC      H14Y           17.0581038775      -52.4708635103        1.0000365414  MEMB      90              0.0000000000
     10194        90  POPC      C315           18.2318977132      -51.5979599728        2.5763651717  MEMB      90              0.0000000000
     10195        90  POPC      H15X           17.8767428698      -52.1879019972        3.4482328524  MEMB      90              0.0000000000
     10196        90  POPC      H15Y           18.4326401892      -50.5693377504        2.9450922709  MEMB      90              0.0000000000
     10197        90  POPC      C316           19.5335812091      -52.3613182722        2.1695633386  MEMB      90              0.0000000000
     10198        90  POPC      H16X           19.3846104940      -53.2132715461        1.4722094656  MEMB      90              0.0000000000
     10199        90  POPC      H16Y           20.1205771734      -52.6650081799        3.0626088525  MEMB      90              0.0000000000
     10200        90  POPC      H16Z           20.1635772318      -51.6329211875        1.6156111619  MEMB      90              0.0000000000
     10201        91  POPC      N             -37.3511013134       37.2822933853       17.4588742259  MEMB      91              0.0000000000
     10202        91  POPC      C12           -36.2008272670       38.1368941743       17.9502777728  MEMB      91              0.0000000000
     10203        91  POPC      H12A          -36.6285322577       39.1225371936       17.8408408884  MEMB      91              0.0000000000
     10204        91  POPC      H12B          -35.4029195186       38.1837674464       17.2239541333  MEMB      91              0.0000000000
     10205        91  POPC      C13           -36.7872043893       35.9005207544       17.1241443445  MEMB      91              0.0000000000
     10206        91  POPC      H13A          -36.0488213501       36.0509602636       16.3504787414  MEMB      91              0.0000000000
     10207        91  POPC      H13B          -36.3387148644       35.5803696654       18.0529932330  MEMB      91              0.0000000000
     10208        91  POPC      H13C          -37.6303366638       35.2556558650       16.9249526054  MEMB      91              0.0000000000
     10209        91  POPC      C14           -38.3011348893       36.9970229283       18.6085584129  MEMB      91              0.0000000000
     10210        91  POPC      H14A          -37.7937980741       36.3688870432       19.3258133011  MEMB      91              0.0000000000
     10211        91  POPC      H14B          -38.5484861560       37.9156007396       19.1198628578  MEMB      91              0.0000000000
     10212        91  POPC      H14C          -39.2412716887       36.5092205787       18.3973906722  MEMB      91              0.0000000000
     10213        91  POPC      C15           -38.1117885572       37.9158454310       16.3361656265  MEMB      91              0.0000000000
     10214        91  POPC      H15A          -39.0105689004       37.3466985609       16.1499775773  MEMB      91              0.0000000000
     10215        91  POPC      H15B          -37.4467067458       38.0574710742       15.4971135840  MEMB      91              0.0000000000
     10216        91  POPC      H15C          -38.5034819972       38.8906491234       16.5866333428  MEMB      91              0.0000000000
     10217        91  POPC      C11           -35.4559483559       38.0299770032       19.2820919242  MEMB      91              0.0000000000
     10218        91  POPC      H11A          -36.1862957916       38.3719622615       20.0462644723  MEMB      91              0.0000000000
     10219        91  POPC      H11B          -34.6182870281       38.7471598614       19.1468396310  MEMB      91              0.0000000000
     10220        91  POPC      P             -34.1114693508       36.2544126386       20.5346517985  MEMB      91              0.0000000000
     10221        91  POPC      O13           -34.2885459168       34.7815780457       20.5877326208  MEMB      91              0.0000000000
     10222        91  POPC      O14           -34.1708107805       37.0632421623       21.7786735677  MEMB      91              0.0000000000
     10223        91  POPC      O12           -35.0895949739       36.7123351548       19.4322082516  MEMB      91              0.0000000000
     10224        91  POPC      O11           -32.6706452961       36.4547382739       19.9066214759  MEMB      91              0.0000000000
     10225        91  POPC      C1            -32.3840307728       35.7027702401       18.7004730292  MEMB      91              0.0000000000
     10226        91  POPC      HA            -33.1785195309       35.8388466195       17.9358869873  MEMB      91              0.0000000000
     10227        91  POPC      HB            -32.1140107285       34.6269020640       18.7630648263  MEMB      91              0.0000000000
     10228        91  POPC      C2            -31.3415488907       36.4137419269       17.7528824683  MEMB      91              0.0000000000
     10229        91  POPC      HS            -30.3697219380       36.6246124120       18.2482680428  MEMB      91              0.0000000000
     10230        91  POPC      O21           -31.9371470870       37.6660960560       17.2915379050  MEMB      91              0.0000000000
     10231        91  POPC      C21           -31.7970611274       38.7002711028       18.1063404053  MEMB      91              0.0000000000
     10232        91  POPC      O22           -31.1965509952       38.8147251600       19.1729335921  MEMB      91              0.0000000000
     10233        91  POPC      C22           -32.4708975156       39.9089329781       17.4358347292  MEMB      91              0.0000000000
     10234        91  POPC      H2R           -31.6255035764       40.5754432987       17.1612541307  MEMB      91              0.0000000000
     10235        91  POPC      H2S           -32.9958886165       40.5505314367       18.1754673493  MEMB      91              0.0000000000
     10236        91  POPC      C3            -30.9694100049       35.5220690503       16.5333131093  MEMB      91              0.0000000000
     10237        91  POPC      HX            -30.3123333360       34.7265226794       16.9452321253  MEMB      91              0.0000000000
     10238        91  POPC      HY            -30.2882864862       36.1094394468       15.8810955847  MEMB      91              0.0000000000
     10239        91  POPC      O31           -32.2132552124       35.0040596015       15.9831000590  MEMB      91              0.0000000000
     10240        91  POPC      C31           -32.7643100692       35.6129758130       14.9710499208  MEMB      91              0.0000000000
     10241        91  POPC      O32           -32.2890665388       36.5637326621       14.3785837287  MEMB      91              0.0000000000
     10242        91  POPC      C32           -34.0921624496       34.9868556305       14.6367053147  MEMB      91              0.0000000000
     10243        91  POPC      H2X           -34.7387678202       35.6366091590       15.2644335876  MEMB      91              0.0000000000
     10244        91  POPC      H2Y           -34.1416002404       33.9495669958       15.0315586367  MEMB      91              0.0000000000
     10245        91  POPC      C23           -33.3015546322       39.8091974984       16.0410066521  MEMB      91              0.0000000000
     10246        91  POPC      H3R           -34.1752262336       39.2107965275       16.3770649698  MEMB      91              0.0000000000
     10247        91  POPC      H3S           -32.7741152027       39.1739167305       15.2976714767  MEMB      91              0.0000000000
     10248        91  POPC      C24           -33.6966295759       41.1825494942       15.4543563273  MEMB      91              0.0000000000
     10249        91  POPC      H4R           -32.7425615481       41.6831691897       15.1833306545  MEMB      91              0.0000000000
     10250        91  POPC      H4S           -34.2334944141       41.7990904475       16.2066692189  MEMB      91              0.0000000000
     10251        91  POPC      C25           -34.5520419726       41.0854666828       14.2280723813  MEMB      91              0.0000000000
     10252        91  POPC      H5R           -34.1390040234       40.4287006694       13.4328495910  MEMB      91              0.0000000000
     10253        91  POPC      H5S           -34.6208125152       42.1116271400       13.8078502637  MEMB      91              0.0000000000
     10254        91  POPC      C26           -35.9113499063       40.5190630321       14.6872047560  MEMB      91              0.0000000000
     10255        91  POPC      H6R           -36.3185972147       41.0094027226       15.5971704181  MEMB      91              0.0000000000
     10256        91  POPC      H6S           -35.7877138784       39.4278187776       14.8551953785  MEMB      91              0.0000000000
     10257        91  POPC      C27           -37.1511944542       40.7884729531       13.7662961205  MEMB      91              0.0000000000
     10258        91  POPC      H7R           -37.2652205399       41.8912921114       13.8377746903  MEMB      91              0.0000000000
     10259        91  POPC      H7S           -38.0244977905       40.3530973649       14.2974362039  MEMB      91              0.0000000000
     10260        91  POPC      C28           -37.0680145726       40.3946997105       12.2985942180  MEMB      91              0.0000000000
     10261        91  POPC      H8R           -36.1189196732       40.8916478692       12.0043459268  MEMB      91              0.0000000000
     10262        91  POPC      H8S           -37.9483451053       40.8121441118       11.7646662985  MEMB      91              0.0000000000
     10263        91  POPC      C29           -37.0667068300       38.8727201775       12.0369333340  MEMB      91              0.0000000000
     10264        91  POPC      H91           -37.8434292083       38.2645714764       12.5236133665  MEMB      91              0.0000000000
     10265        91  POPC      C210          -36.1067778865       38.2444203745       11.2269396352  MEMB      91              0.0000000000
     10266        91  POPC      H101          -36.2215994847       37.1584147291       11.0950009116  MEMB      91              0.0000000000
     10267        91  POPC      C211          -34.9101854168       38.7881188539       10.4046591675  MEMB      91              0.0000000000
     10268        91  POPC      H11R          -33.9545136999       38.3109849656       10.7102009974  MEMB      91              0.0000000000
     10269        91  POPC      H11S          -34.7551151814       39.8461229692       10.7061583420  MEMB      91              0.0000000000
     10270        91  POPC      C212          -35.0087019989       38.6310652627        8.8944460206  MEMB      91              0.0000000000
     10271        91  POPC      H12R          -36.0610003562       38.6881111083        8.5426862505  MEMB      91              0.0000000000
     10272        91  POPC      H12S          -34.5553117331       37.6705227140        8.5686902863  MEMB      91              0.0000000000
     10273        91  POPC      C213          -34.2366997263       39.7597663199        8.1350601271  MEMB      91              0.0000000000
     10274        91  POPC      H13R          -33.1497899210       39.7470902391        8.3648150784  MEMB      91              0.0000000000
     10275        91  POPC      H13S          -34.5740796367       40.6945157723        8.6317878254  MEMB      91              0.0000000000
     10276        91  POPC      C214          -34.3967057783       39.8550180484        6.6337309767  MEMB      91              0.0000000000
     10277        91  POPC      H14R          -34.0384952552       40.8057330079        6.1841227212  MEMB      91              0.0000000000
     10278        91  POPC      H14S          -35.4799305678       39.7194359261        6.4274246568  MEMB      91              0.0000000000
     10279        91  POPC      C215          -33.7845701456       38.6930892152        5.7598877602  MEMB      91              0.0000000000
     10280        91  POPC      H15R          -34.3264146435       37.7366247084        5.9208260279  MEMB      91              0.0000000000
     10281        91  POPC      H15S          -32.7865245435       38.4669421010        6.1924189995  MEMB      91              0.0000000000
     10282        91  POPC      C216          -33.4959593380       39.0283424029        4.2155338035  MEMB      91              0.0000000000
     10283        91  POPC      H16R          -34.4448911351       39.0336986889        3.6377610437  MEMB      91              0.0000000000
     10284        91  POPC      H16S          -32.8243939147       38.2363468682        3.8204844000  MEMB      91              0.0000000000
     10285        91  POPC      C217          -32.6760732260       40.3268461166        3.9711296992  MEMB      91              0.0000000000
     10286        91  POPC      H17R          -31.8574446948       40.3824263480        4.7201821296  MEMB      91              0.0000000000
     10287        91  POPC      H17S          -33.2634925599       41.2315130612        4.2372821886  MEMB      91              0.0000000000
     10288        91  POPC      C218          -32.1693239729       40.3898472368        2.5397135363  MEMB      91              0.0000000000
     10289        91  POPC      H18R          -31.2535394661       41.0090511597        2.4290512042  MEMB      91              0.0000000000
     10290        91  POPC      H18S          -32.9223724300       40.8895072094        1.8935096533  MEMB      91              0.0000000000
     10291        91  POPC      H18T          -31.9323395443       39.3961263481        2.1030467475  MEMB      91              0.0000000000
     10292        91  POPC      C33           -34.4455793646       35.1125173934       13.1592350418  MEMB      91              0.0000000000
     10293        91  POPC      H3X           -33.9357663559       36.0067573211       12.7412079139  MEMB      91              0.0000000000
     10294        91  POPC      H3Y           -35.5293532130       35.3433695061       13.0788450756  MEMB      91              0.0000000000
     10295        91  POPC      C34           -34.2733434679       33.7384035546       12.4640495689  MEMB      91              0.0000000000
     10296        91  POPC      H4X           -34.8511796956       32.9667129792       13.0162451976  MEMB      91              0.0000000000
     10297        91  POPC      H4Y           -33.2642941458       33.2979083641       12.6127246378  MEMB      91              0.0000000000
     10298        91  POPC      C35           -34.8838766362       33.7320764320       10.9465625806  MEMB      91              0.0000000000
     10299        91  POPC      H5X           -34.5729550840       32.7547182558       10.5194568125  MEMB      91              0.0000000000
     10300        91  POPC      H5Y           -34.4436911167       34.5226928352       10.3019827748  MEMB      91              0.0000000000
     10301        91  POPC      C36           -36.4329507437       33.8501419078       10.9406599972  MEMB      91              0.0000000000
     10302        91  POPC      H6X           -36.7722970410       34.8703417810       11.2205838880  MEMB      91              0.0000000000
     10303        91  POPC      H6Y           -36.9119172115       33.2025680744       11.7058786139  MEMB      91              0.0000000000
     10304        91  POPC      C37           -36.9687045863       33.5093459204        9.5415643659  MEMB      91              0.0000000000
     10305        91  POPC      H7X           -37.9819977219       33.0562803106        9.5894155900  MEMB      91              0.0000000000
     10306        91  POPC      H7Y           -36.2758893196       32.7788321596        9.0717999508  MEMB      91              0.0000000000
     10307        91  POPC      C38           -37.1090688496       34.7964204203        8.6682149623  MEMB      91              0.0000000000
     10308        91  POPC      H8X           -36.1850672439       35.3929548219        8.8253422002  MEMB      91              0.0000000000
     10309        91  POPC      H8Y           -38.0061082582       35.3304439090        9.0482937012  MEMB      91              0.0000000000
     10310        91  POPC      C39           -37.0270628948       34.5158621483        7.1861393489  MEMB      91              0.0000000000
     10311        91  POPC      H9X           -37.1214181841       35.5202709707        6.7207564900  MEMB      91              0.0000000000
     10312        91  POPC      H9Y           -38.0163510750       34.0313812046        7.0415433966  MEMB      91              0.0000000000
     10313        91  POPC      C310          -35.7514609465       33.7815610088        6.7405604344  MEMB      91              0.0000000000
     10314        91  POPC      H10X          -35.9724309309       33.4163403607        5.7148382561  MEMB      91              0.0000000000
     10315        91  POPC      H10Y          -35.6351763195       32.8188785037        7.2828161805  MEMB      91              0.0000000000
     10316        91  POPC      C311          -34.4785732895       34.6156728351        6.7656777684  MEMB      91              0.0000000000
     10317        91  POPC      H11X          -34.2187097676       34.6804477674        7.8439153486  MEMB      91              0.0000000000
     10318        91  POPC      H11Y          -34.5776319116       35.6473567720        6.3655069359  MEMB      91              0.0000000000
     10319        91  POPC      C312          -33.3098219304       34.0364418748        5.9788647557  MEMB      91              0.0000000000
     10320        91  POPC      H12X          -33.0626594907       33.1248124761        6.5638127656  MEMB      91              0.0000000000
     10321        91  POPC      H12Y          -32.4754054991       34.7656492229        6.0584051669  MEMB      91              0.0000000000
     10322        91  POPC      C313          -33.3571916322       33.7422784716        4.5114329010  MEMB      91              0.0000000000
     10323        91  POPC      H13X          -34.1565006081       32.9945016038        4.3210232970  MEMB      91              0.0000000000
     10324        91  POPC      H13Y          -32.3981651231       33.2761192534        4.1995288587  MEMB      91              0.0000000000
     10325        91  POPC      C314          -33.7361527305       34.9005999937        3.6861203068  MEMB      91              0.0000000000
     10326        91  POPC      H14X          -33.2620327683       35.8179372861        4.0960269062  MEMB      91              0.0000000000
     10327        91  POPC      H14Y          -34.8244645593       35.1186192052        3.7347610410  MEMB      91              0.0000000000
     10328        91  POPC      C315          -33.5440845015       34.6744422132        2.1873507130  MEMB      91              0.0000000000
     10329        91  POPC      H15X          -34.0895847532       33.7247455590        2.0007320901  MEMB      91              0.0000000000
     10330        91  POPC      H15Y          -32.4496196431       34.5885970448        2.0167666247  MEMB      91              0.0000000000
     10331        91  POPC      C316          -34.0996035834       35.8320626953        1.2945661225  MEMB      91              0.0000000000
     10332        91  POPC      H16X          -35.0862776777       36.0941558015        1.7328606766  MEMB      91              0.0000000000
     10333        91  POPC      H16Y          -34.1142030300       35.4994245387        0.2346315919  MEMB      91              0.0000000000
     10334        91  POPC      H16Z          -33.3835091131       36.6800882590        1.2457562913  MEMB      91              0.0000000000
     10335        92  POPC      N               3.7042066697      -53.3926328816       18.2549655176  MEMB      92              0.0000000000
     10336        92  POPC      C12             2.9413314810      -53.8428276272       19.4373488115  MEMB      92              0.0000000000
     10337        92  POPC      H12A            2.0061597954      -53.3051745027       19.4901030560  MEMB      92              0.0000000000
     10338        92  POPC      H12B            3.5754919417      -53.7126969088       20.3018177178  MEMB      92              0.0000000000
     10339        92  POPC      C13             2.9161884139      -53.7809468428       17.0111398740  MEMB      92              0.0000000000
     10340        92  POPC      H13A            1.9293446594      -53.3443013512       16.9677790715  MEMB      92              0.0000000000
     10341        92  POPC      H13B            3.4983777038      -53.4410193822       16.1673953027  MEMB      92              0.0000000000
     10342        92  POPC      H13C            2.8533701230      -54.8557671639       17.0960807682  MEMB      92              0.0000000000
     10343        92  POPC      C14             3.7995047295      -51.9075597160       18.3225428382  MEMB      92              0.0000000000
     10344        92  POPC      H14A            2.8836100675      -51.4144347104       18.6129986178  MEMB      92              0.0000000000
     10345        92  POPC      H14B            4.6208889760      -51.6706824360       18.9825558422  MEMB      92              0.0000000000
     10346        92  POPC      H14C            4.0818777765      -51.6212355287       17.3202036215  MEMB      92              0.0000000000
     10347        92  POPC      C15             5.1270365009      -54.0540159607       18.2107055846  MEMB      92              0.0000000000
     10348        92  POPC      H15A            5.6856727025      -53.9243863736       19.1258677025  MEMB      92              0.0000000000
     10349        92  POPC      H15B            5.6189572002      -53.6015522703       17.3623596908  MEMB      92              0.0000000000
     10350        92  POPC      H15C            5.0203874265      -55.0953695630       17.9449825588  MEMB      92              0.0000000000
     10351        92  POPC      C11             2.6091129034      -55.3400626151       19.6763585536  MEMB      92              0.0000000000
     10352        92  POPC      H11A            2.1264532510      -55.7757981671       18.7755283000  MEMB      92              0.0000000000
     10353        92  POPC      H11B            1.8811720602      -55.3527439626       20.5155617777  MEMB      92              0.0000000000
     10354        92  POPC      P               3.7871039394      -57.5931647985       19.6958988000  MEMB      92              0.0000000000
     10355        92  POPC      O13             2.5966834160      -58.2137034826       20.3224459239  MEMB      92              0.0000000000
     10356        92  POPC      O14             5.0911424806      -58.2475787141       19.9725429498  MEMB      92              0.0000000000
     10357        92  POPC      O12             3.7890821723      -56.0746028962       20.0448742897  MEMB      92              0.0000000000
     10358        92  POPC      O11             3.7326308203      -57.3366130640       18.0511768613  MEMB      92              0.0000000000
     10359        92  POPC      C1              2.6047657308      -57.9809208351       17.4542410135  MEMB      92              0.0000000000
     10360        92  POPC      HA              1.7013606478      -57.3900910773       17.7171108181  MEMB      92              0.0000000000
     10361        92  POPC      HB              2.4309056185      -59.0293365198       17.7781521595  MEMB      92              0.0000000000
     10362        92  POPC      C2              2.7434392800      -57.9888291748       15.9367147731  MEMB      92              0.0000000000
     10363        92  POPC      HS              3.1902091028      -58.9481784009       15.5985335258  MEMB      92              0.0000000000
     10364        92  POPC      O21             3.6066404707      -56.9827586264       15.4630222791  MEMB      92              0.0000000000
     10365        92  POPC      C21             4.3942436410      -57.2295577457       14.2919149657  MEMB      92              0.0000000000
     10366        92  POPC      O22             4.5448106988      -58.3453864285       13.8272250787  MEMB      92              0.0000000000
     10367        92  POPC      C22             4.8185333450      -55.9330976230       13.6498953318  MEMB      92              0.0000000000
     10368        92  POPC      H2R             5.4769169197      -55.3086977369       14.2909703833  MEMB      92              0.0000000000
     10369        92  POPC      H2S             3.9363473157      -55.3111901944       13.3866467292  MEMB      92              0.0000000000
     10370        92  POPC      C3              1.3614218244      -57.7965210794       15.3431458879  MEMB      92              0.0000000000
     10371        92  POPC      HX              0.8818856380      -56.8711769996       15.7279893929  MEMB      92              0.0000000000
     10372        92  POPC      HY              0.7716687983      -58.6381993963       15.7651533253  MEMB      92              0.0000000000
     10373        92  POPC      O31             1.3093131081      -57.7837057485       13.8648697746  MEMB      92              0.0000000000
     10374        92  POPC      C31             0.4189973181      -58.5819465174       13.2158898733  MEMB      92              0.0000000000
     10375        92  POPC      O32            -0.3314947923      -59.3018126195       13.8521793396  MEMB      92              0.0000000000
     10376        92  POPC      C32             0.6248092855      -58.5779816830       11.7780419472  MEMB      92              0.0000000000
     10377        92  POPC      H2X             0.7973460817      -57.5623702253       11.3620067029  MEMB      92              0.0000000000
     10378        92  POPC      H2Y            -0.2451694244      -59.0683683977       11.2912369044  MEMB      92              0.0000000000
     10379        92  POPC      C23             5.5148748987      -56.3211222228       12.3091467700  MEMB      92              0.0000000000
     10380        92  POPC      H3R             4.8132485171      -56.9015770203       11.6726612993  MEMB      92              0.0000000000
     10381        92  POPC      H3S             6.3717506523      -57.0227079695       12.3978144469  MEMB      92              0.0000000000
     10382        92  POPC      C24             5.9671858059      -55.0972693025       11.4780943680  MEMB      92              0.0000000000
     10383        92  POPC      H4R             6.3893944623      -55.4997028734       10.5325210855  MEMB      92              0.0000000000
     10384        92  POPC      H4S             6.7719767442      -54.4802918875       11.9319349512  MEMB      92              0.0000000000
     10385        92  POPC      C25             4.6932077748      -54.1855794924       11.1578467931  MEMB      92              0.0000000000
     10386        92  POPC      H5R             5.1133303766      -53.4592450288       10.4296603984  MEMB      92              0.0000000000
     10387        92  POPC      H5S             4.2987847936      -53.5974272478       12.0139008228  MEMB      92              0.0000000000
     10388        92  POPC      C26             3.6211691404      -54.9826449781       10.4202371314  MEMB      92              0.0000000000
     10389        92  POPC      H6R             2.9673327062      -55.5042120984       11.1515282924  MEMB      92              0.0000000000
     10390        92  POPC      H6S             4.2078750783      -55.6773944030        9.7819425881  MEMB      92              0.0000000000
     10391        92  POPC      C27             2.6433397950      -54.0938947729        9.5993778068  MEMB      92              0.0000000000
     10392        92  POPC      H7R             3.2679107659      -53.4872477341        8.9092965999  MEMB      92              0.0000000000
     10393        92  POPC      H7S             2.0082847764      -53.4826675894       10.2757119158  MEMB      92              0.0000000000
     10394        92  POPC      C28             1.5624034192      -54.9057275686        8.8064255057  MEMB      92              0.0000000000
     10395        92  POPC      H8R             1.1077392972      -55.5316226743        9.6038322444  MEMB      92              0.0000000000
     10396        92  POPC      H8S             2.1282582194      -55.5102519308        8.0656968442  MEMB      92              0.0000000000
     10397        92  POPC      C29             0.3945547532      -54.1192346278        8.2880440352  MEMB      92              0.0000000000
     10398        92  POPC      H91             0.0076778879      -53.5640882629        9.1553039245  MEMB      92              0.0000000000
     10399        92  POPC      C210           -0.1844498286      -54.0792609262        7.0685919047  MEMB      92              0.0000000000
     10400        92  POPC      H101           -1.0603539320      -53.4463474527        6.8631344252  MEMB      92              0.0000000000
     10401        92  POPC      C211            0.1819926362      -54.8206476634        5.8255415512  MEMB      92              0.0000000000
     10402        92  POPC      H11R            0.9131658508      -55.5854730915        6.1642874544  MEMB      92              0.0000000000
     10403        92  POPC      H11S            0.7940552522      -54.1383685762        5.1976908291  MEMB      92              0.0000000000
     10404        92  POPC      C212           -1.0169615639      -55.4829998502        5.1138183315  MEMB      92              0.0000000000
     10405        92  POPC      H12R           -1.6573751635      -54.8130902602        4.5011089317  MEMB      92              0.0000000000
     10406        92  POPC      H12S           -1.8023692764      -55.7302160767        5.8596998570  MEMB      92              0.0000000000
     10407        92  POPC      C213           -0.6375627765      -56.7025392340        4.2959688738  MEMB      92              0.0000000000
     10408        92  POPC      H13R           -1.4482991617      -57.1308503373        3.6686113359  MEMB      92              0.0000000000
     10409        92  POPC      H13S           -0.5407936423      -57.5225933773        5.0392510007  MEMB      92              0.0000000000
     10410        92  POPC      C214            0.6556211782      -56.6546109996        3.4237076925  MEMB      92              0.0000000000
     10411        92  POPC      H14R            1.4602145806      -56.1410909751        3.9922571989  MEMB      92              0.0000000000
     10412        92  POPC      H14S            0.2563392550      -56.0045839261        2.6160196293  MEMB      92              0.0000000000
     10413        92  POPC      C215            1.0743221289      -58.0595245951        2.9954171141  MEMB      92              0.0000000000
     10414        92  POPC      H15R            0.2324524770      -58.7138452300        2.6832630384  MEMB      92              0.0000000000
     10415        92  POPC      H15S            1.3020026784      -58.6032402155        3.9371479050  MEMB      92              0.0000000000
     10416        92  POPC      C216            2.3479480649      -58.2912045937        2.1629820531  MEMB      92              0.0000000000
     10417        92  POPC      H16R            3.1268643130      -57.5655919974        2.4809392712  MEMB      92              0.0000000000
     10418        92  POPC      H16S            2.2353736158      -57.9769893209        1.1033031031  MEMB      92              0.0000000000
     10419        92  POPC      C217            2.8872963883      -59.7348508671        2.1932915118  MEMB      92              0.0000000000
     10420        92  POPC      H17R            2.0766813716      -60.3841591671        1.7988015387  MEMB      92              0.0000000000
     10421        92  POPC      H17S            3.1797285330      -60.1239665341        3.1919878157  MEMB      92              0.0000000000
     10422        92  POPC      C218            4.1424937563      -59.9842813186        1.3292659953  MEMB      92              0.0000000000
     10423        92  POPC      H18R            4.9493733582      -59.5045845839        1.9235369919  MEMB      92              0.0000000000
     10424        92  POPC      H18S            3.9501596272      -59.5978766383        0.3055384735  MEMB      92              0.0000000000
     10425        92  POPC      H18T            4.3664143266      -61.0658700407        1.2094894311  MEMB      92              0.0000000000
     10426        92  POPC      C33             1.9410376154      -59.2472832245       11.4692130495  MEMB      92              0.0000000000
     10427        92  POPC      H3X             2.0699420517      -60.0839137645       12.1887643401  MEMB      92              0.0000000000
     10428        92  POPC      H3Y             2.8206024605      -58.6436573854       11.7795725082  MEMB      92              0.0000000000
     10429        92  POPC      C34             2.0755783500      -59.7967209391       10.0839117761  MEMB      92              0.0000000000
     10430        92  POPC      H4X             1.1903241686      -60.3847962821        9.7601633064  MEMB      92              0.0000000000
     10431        92  POPC      H4Y             2.8584025618      -60.5835642362       10.0350782783  MEMB      92              0.0000000000
     10432        92  POPC      C35             2.4586040500      -58.7419477196        9.1094020316  MEMB      92              0.0000000000
     10433        92  POPC      H5X             3.4295322903      -58.3362429276        9.4658044110  MEMB      92              0.0000000000
     10434        92  POPC      H5Y             1.6746185325      -57.9668645618        8.9718013574  MEMB      92              0.0000000000
     10435        92  POPC      C36             2.6946131275      -59.3984611827        7.6566065639  MEMB      92              0.0000000000
     10436        92  POPC      H6X             1.7204237090      -59.8409137484        7.3574210629  MEMB      92              0.0000000000
     10437        92  POPC      H6Y             3.4645007721      -60.1859531085        7.8030657274  MEMB      92              0.0000000000
     10438        92  POPC      C37             3.0555247492      -58.4480017740        6.5191842973  MEMB      92              0.0000000000
     10439        92  POPC      H7X             2.1728333205      -57.8782175483        6.1579049631  MEMB      92              0.0000000000
     10440        92  POPC      H7Y             3.1858261656      -58.9669512570        5.5455131345  MEMB      92              0.0000000000
     10441        92  POPC      C38             4.2198845789      -57.5929483079        6.7580122485  MEMB      92              0.0000000000
     10442        92  POPC      H8X             5.1632032640      -58.1436314258        6.9610374137  MEMB      92              0.0000000000
     10443        92  POPC      H8Y             4.0844146108      -57.0491846819        7.7173295406  MEMB      92              0.0000000000
     10444        92  POPC      C39             4.6111839602      -56.5652885958        5.6766636441  MEMB      92              0.0000000000
     10445        92  POPC      H9X             3.6010702934      -56.2862559337        5.3077020163  MEMB      92              0.0000000000
     10446        92  POPC      H9Y             5.0576934335      -57.0555640778        4.7852709600  MEMB      92              0.0000000000
     10447        92  POPC      C310            5.4820422316      -55.3978029009        6.1315082553  MEMB      92              0.0000000000
     10448        92  POPC      H10X            6.4628988389      -55.8439800218        6.4020011037  MEMB      92              0.0000000000
     10449        92  POPC      H10Y            5.1043441734      -55.0358388057        7.1116342594  MEMB      92              0.0000000000
     10450        92  POPC      C311            5.6385016511      -54.2210799651        5.1867715238  MEMB      92              0.0000000000
     10451        92  POPC      H11X            6.1461588332      -54.6396833679        4.2915754372  MEMB      92              0.0000000000
     10452        92  POPC      H11Y            6.3681640483      -53.5693776054        5.7132670163  MEMB      92              0.0000000000
     10453        92  POPC      C312            4.3773032946      -53.4017134858        4.9590571416  MEMB      92              0.0000000000
     10454        92  POPC      H12X            4.1203072375      -52.8164247351        5.8677432563  MEMB      92              0.0000000000
     10455        92  POPC      H12Y            3.5665085781      -54.0988747106        4.6575620508  MEMB      92              0.0000000000
     10456        92  POPC      C313            4.4670708577      -52.3644482907        3.8810722223  MEMB      92              0.0000000000
     10457        92  POPC      H13X            5.2224447054      -51.6227702778        4.2181845108  MEMB      92              0.0000000000
     10458        92  POPC      H13Y            3.4832445193      -51.8483026024        3.8816032673  MEMB      92              0.0000000000
     10459        92  POPC      C314            4.6418199950      -52.8952363376        2.4259147300  MEMB      92              0.0000000000
     10460        92  POPC      H14X            5.7221356824      -53.1510340803        2.3834096084  MEMB      92              0.0000000000
     10461        92  POPC      H14Y            4.3819046363      -51.9783120215        1.8549373533  MEMB      92              0.0000000000
     10462        92  POPC      C315            3.9056405099      -54.2410812083        2.0383980221  MEMB      92              0.0000000000
     10463        92  POPC      H15X            2.8561290694      -53.9318467902        2.2313254582  MEMB      92              0.0000000000
     10464        92  POPC      H15Y            4.3365981065      -55.0510360299        2.6649523873  MEMB      92              0.0000000000
     10465        92  POPC      C316            4.0042402580      -54.6409662725        0.5980331091  MEMB      92              0.0000000000
     10466        92  POPC      H16X            3.5415884276      -53.9030713596       -0.0917385895  MEMB      92              0.0000000000
     10467        92  POPC      H16Y            3.4819040429      -55.6188708363        0.5260005101  MEMB      92              0.0000000000
     10468        92  POPC      H16Z            5.0395482984      -54.9661058448        0.3598260043  MEMB      92              0.0000000000
     10469        93  POPC      N             -53.1044481755        8.7838781484       17.7445465671  MEMB      93              0.0000000000
     10470        93  POPC      C12           -53.7274503495       10.0779990823       17.5466115990  MEMB      93              0.0000000000
     10471        93  POPC      H12A          -54.7907282032       10.0477842124       17.7334999229  MEMB      93              0.0000000000
     10472        93  POPC      H12B          -53.5359420213       10.4757427586       16.5609521669  MEMB      93              0.0000000000
     10473        93  POPC      C13           -53.4217239574        8.1899771723       19.1057092930  MEMB      93              0.0000000000
     10474        93  POPC      H13A          -52.7448591930        7.3795808574       19.3326719402  MEMB      93              0.0000000000
     10475        93  POPC      H13B          -53.3972284500        8.9561839146       19.8664504609  MEMB      93              0.0000000000
     10476        93  POPC      H13C          -54.3765035843        7.6855384474       19.0873395749  MEMB      93              0.0000000000
     10477        93  POPC      C14           -53.5731349114        7.8514956553       16.6876327305  MEMB      93              0.0000000000
     10478        93  POPC      H14A          -54.6460265475        7.8790839784       16.8082243693  MEMB      93              0.0000000000
     10479        93  POPC      H14B          -53.4251801823        8.1749876383       15.6678963521  MEMB      93              0.0000000000
     10480        93  POPC      H14C          -53.1848558553        6.8951858575       17.0056120336  MEMB      93              0.0000000000
     10481        93  POPC      C15           -51.5860098079        8.9039296942       17.7852596989  MEMB      93              0.0000000000
     10482        93  POPC      H15A          -51.2867902648        9.6466066451       17.0604848071  MEMB      93              0.0000000000
     10483        93  POPC      H15B          -51.1602394989        7.9182034686       17.6692275394  MEMB      93              0.0000000000
     10484        93  POPC      H15C          -51.4270346072        9.2736598664       18.7874704863  MEMB      93              0.0000000000
     10485        93  POPC      C11           -53.2655098110       11.2351121273       18.4066327330  MEMB      93              0.0000000000
     10486        93  POPC      H11A          -53.7284142800       12.1393607267       17.9567717460  MEMB      93              0.0000000000
     10487        93  POPC      H11B          -52.1744563302       11.4443033150       18.3938940334  MEMB      93              0.0000000000
     10488        93  POPC      P             -55.0330069323       11.3791181052       20.4046298768  MEMB      93              0.0000000000
     10489        93  POPC      O13           -54.8650016413       12.8198978561       20.8535343599  MEMB      93              0.0000000000
     10490        93  POPC      O14           -55.3804785037       10.3823288611       21.4414504391  MEMB      93              0.0000000000
     10491        93  POPC      O12           -53.6036192475       10.9982991654       19.7655102699  MEMB      93              0.0000000000
     10492        93  POPC      O11           -56.0531151969       11.3174060388       19.2584824658  MEMB      93              0.0000000000
     10493        93  POPC      C1            -57.3179095860       10.6371740304       19.5251518542  MEMB      93              0.0000000000
     10494        93  POPC      HA            -57.9261831970       11.1506779864       20.3001601319  MEMB      93              0.0000000000
     10495        93  POPC      HB            -57.1228378737        9.5716440083       19.7719590855  MEMB      93              0.0000000000
     10496        93  POPC      C2            -58.2125831765       10.8013194544       18.2945859296  MEMB      93              0.0000000000
     10497        93  POPC      HS            -59.0021417042       10.0215132596       18.2414739609  MEMB      93              0.0000000000
     10498        93  POPC      O21           -57.4246729488       10.6170565534       17.0839893594  MEMB      93              0.0000000000
     10499        93  POPC      C21           -57.3223561290        9.2992717788       16.7492943098  MEMB      93              0.0000000000
     10500        93  POPC      O22           -57.6577334978        8.3238190401       17.4113194210  MEMB      93              0.0000000000
     10501        93  POPC      C22           -56.8436476161        9.2670373372       15.3011562828  MEMB      93              0.0000000000
     10502        93  POPC      H2R           -55.7369171723        9.3407863902       15.2376769494  MEMB      93              0.0000000000
     10503        93  POPC      H2S           -57.1721106219       10.1289266667       14.6818180878  MEMB      93              0.0000000000
     10504        93  POPC      C3            -58.8616679879       12.2124341181       18.2445955777  MEMB      93              0.0000000000
     10505        93  POPC      HX            -59.2998656253       12.3753555885       19.2524450395  MEMB      93              0.0000000000
     10506        93  POPC      HY            -59.6207642581       12.2945601098       17.4375333889  MEMB      93              0.0000000000
     10507        93  POPC      O31           -57.8068343368       13.1710031360       18.2018262268  MEMB      93              0.0000000000
     10508        93  POPC      C31           -57.5685030717       13.7346370336       16.9197751118  MEMB      93              0.0000000000
     10509        93  POPC      O32           -58.0710266575       13.3944194596       15.9023217439  MEMB      93              0.0000000000
     10510        93  POPC      C32           -56.4401963476       14.7640740365       17.0690741344  MEMB      93              0.0000000000
     10511        93  POPC      H2X           -55.7915336696       14.4834875900       17.9262957972  MEMB      93              0.0000000000
     10512        93  POPC      H2Y           -56.9198893062       15.7484478891       17.2567524553  MEMB      93              0.0000000000
     10513        93  POPC      C23           -57.3857015672        7.9815967709       14.6345048199  MEMB      93              0.0000000000
     10514        93  POPC      H3R           -56.9938830801        7.0857278095       15.1619685267  MEMB      93              0.0000000000
     10515        93  POPC      H3S           -56.8313591735        8.0187645707       13.6724009418  MEMB      93              0.0000000000
     10516        93  POPC      C24           -58.9422470789        7.9702833569       14.5606269166  MEMB      93              0.0000000000
     10517        93  POPC      H4R           -59.3694206799        8.1096240177       15.5767115380  MEMB      93              0.0000000000
     10518        93  POPC      H4S           -59.2865548925        6.9405326690       14.3252832037  MEMB      93              0.0000000000
     10519        93  POPC      C25           -59.5275070467        9.1708102192       13.7770498433  MEMB      93              0.0000000000
     10520        93  POPC      H5R           -59.1370144282       10.1355790478       14.1657108313  MEMB      93              0.0000000000
     10521        93  POPC      H5S           -60.6150721524        9.1941841342       14.0028297297  MEMB      93              0.0000000000
     10522        93  POPC      C26           -59.3774474009        9.1813371414       12.2394348184  MEMB      93              0.0000000000
     10523        93  POPC      H6R           -58.3062981105        9.2086106437       11.9458089445  MEMB      93              0.0000000000
     10524        93  POPC      H6S           -59.6273311083       10.1530069453       11.7622173409  MEMB      93              0.0000000000
     10525        93  POPC      C27           -60.1305148444        8.0164993654       11.6019291621  MEMB      93              0.0000000000
     10526        93  POPC      H7R           -61.2230137300        8.2140981836       11.5604329878  MEMB      93              0.0000000000
     10527        93  POPC      H7S           -60.0161487817        7.1157617141       12.2421740326  MEMB      93              0.0000000000
     10528        93  POPC      C28           -59.5536359306        7.6378526133       10.1971500511  MEMB      93              0.0000000000
     10529        93  POPC      H8R           -59.4882418808        8.6439174448        9.7303757160  MEMB      93              0.0000000000
     10530        93  POPC      H8S           -60.3314836630        7.0345635427        9.6820618934  MEMB      93              0.0000000000
     10531        93  POPC      C29           -58.2548770830        6.8356900302       10.4001035800  MEMB      93              0.0000000000
     10532        93  POPC      H91           -58.1967314121        6.2237409704       11.3123187641  MEMB      93              0.0000000000
     10533        93  POPC      C210          -57.1020965340        7.0992378778        9.7959816576  MEMB      93              0.0000000000
     10534        93  POPC      H101          -56.2257490975        6.4492273781        9.9356284554  MEMB      93              0.0000000000
     10535        93  POPC      C211          -56.7957024166        8.2092992807        8.8077532011  MEMB      93              0.0000000000
     10536        93  POPC      H11R          -56.2150344090        8.9882585832        9.3466118063  MEMB      93              0.0000000000
     10537        93  POPC      H11S          -57.6759189981        8.7328914762        8.3771831371  MEMB      93              0.0000000000
     10538        93  POPC      C212          -55.9245346633        7.7526855035        7.5937329205  MEMB      93              0.0000000000
     10539        93  POPC      H12R          -55.1075981150        7.1139384193        7.9924038124  MEMB      93              0.0000000000
     10540        93  POPC      H12S          -55.4520495279        8.5892920398        7.0359086793  MEMB      93              0.0000000000
     10541        93  POPC      C213          -56.7126854373        7.0127865710        6.4705234248  MEMB      93              0.0000000000
     10542        93  POPC      H13R          -57.5287949406        7.6962744164        6.1525138340  MEMB      93              0.0000000000
     10543        93  POPC      H13S          -57.2237178622        6.1754107359        6.9920294987  MEMB      93              0.0000000000
     10544        93  POPC      C214          -55.9463161904        6.4645187041        5.2750285880  MEMB      93              0.0000000000
     10545        93  POPC      H14R          -55.4965059944        7.3704283099        4.8153334149  MEMB      93              0.0000000000
     10546        93  POPC      H14S          -56.5900270691        5.9103308867        4.5589043854  MEMB      93              0.0000000000
     10547        93  POPC      C215          -54.7200954763        5.6489313019        5.6435060494  MEMB      93              0.0000000000
     10548        93  POPC      H15R          -55.0192163361        4.7025094330        6.1426390879  MEMB      93              0.0000000000
     10549        93  POPC      H15S          -54.1246256904        6.1800827591        6.4165617265  MEMB      93              0.0000000000
     10550        93  POPC      C216          -53.6999198758        5.4076391562        4.4287695849  MEMB      93              0.0000000000
     10551        93  POPC      H16R          -52.8403828500        4.8762186000        4.8904083156  MEMB      93              0.0000000000
     10552        93  POPC      H16S          -53.4309915469        6.4064761383        4.0234018718  MEMB      93              0.0000000000
     10553        93  POPC      C217          -54.2913385804        4.6184988534        3.2763304447  MEMB      93              0.0000000000
     10554        93  POPC      H17R          -55.2748656800        5.0358572121        2.9716868145  MEMB      93              0.0000000000
     10555        93  POPC      H17S          -54.5712912944        3.5727801012        3.5261698351  MEMB      93              0.0000000000
     10556        93  POPC      C218          -53.2903643303        4.5411346533        2.0827710093  MEMB      93              0.0000000000
     10557        93  POPC      H18R          -52.3736360289        4.0519101510        2.4759505132  MEMB      93              0.0000000000
     10558        93  POPC      H18S          -53.1195790962        5.5992425242        1.7902627683  MEMB      93              0.0000000000
     10559        93  POPC      H18T          -53.6462871762        4.0045666588        1.1773792634  MEMB      93              0.0000000000
     10560        93  POPC      C33           -55.6393714587       14.9303649380       15.7784200183  MEMB      93              0.0000000000
     10561        93  POPC      H3X           -55.0874410144       15.8939883839       15.8119421895  MEMB      93              0.0000000000
     10562        93  POPC      H3Y           -56.4671570176       14.9550388032       15.0378235138  MEMB      93              0.0000000000
     10563        93  POPC      C34           -54.5793549802       13.7718187467       15.5901840302  MEMB      93              0.0000000000
     10564        93  POPC      H4X           -55.1174599929       12.8012876706       15.5369547212  MEMB      93              0.0000000000
     10565        93  POPC      H4Y           -53.9268011549       13.9529679640       16.4709108671  MEMB      93              0.0000000000
     10566        93  POPC      C35           -53.7876100429       13.9282004630       14.3010366793  MEMB      93              0.0000000000
     10567        93  POPC      H5X           -52.9125032318       13.2456860869       14.3528342840  MEMB      93              0.0000000000
     10568        93  POPC      H5Y           -53.2827290949       14.9176940775       14.2831843240  MEMB      93              0.0000000000
     10569        93  POPC      C36           -54.5766687439       13.8775682520       12.9652035041  MEMB      93              0.0000000000
     10570        93  POPC      H6X           -53.9591804037       14.2441286844       12.1174640473  MEMB      93              0.0000000000
     10571        93  POPC      H6Y           -55.4712798757       14.5187378048       13.1165088049  MEMB      93              0.0000000000
     10572        93  POPC      C37           -55.1014866112       12.4139934853       12.5425576512  MEMB      93              0.0000000000
     10573        93  POPC      H7X           -55.8643615599       12.2261763097       13.3280941943  MEMB      93              0.0000000000
     10574        93  POPC      H7Y           -54.3169794129       11.7187439948       12.9106572826  MEMB      93              0.0000000000
     10575        93  POPC      C38           -55.3882598714       12.3302545492       11.0545438760  MEMB      93              0.0000000000
     10576        93  POPC      H8X           -55.8518847473       11.3238807806       10.9733959653  MEMB      93              0.0000000000
     10577        93  POPC      H8Y           -54.4842247344       12.3121356180       10.4090100116  MEMB      93              0.0000000000
     10578        93  POPC      C39           -56.4834388695       13.2363315161       10.4793103099  MEMB      93              0.0000000000
     10579        93  POPC      H9X           -56.2122672271       14.3101661101       10.3917527978  MEMB      93              0.0000000000
     10580        93  POPC      H9Y           -57.3858277079       13.2575634221       11.1270484738  MEMB      93              0.0000000000
     10581        93  POPC      C310          -57.0310644205       12.8724963272        9.1226431058  MEMB      93              0.0000000000
     10582        93  POPC      H10X          -57.7750849413       13.6464923468        8.8368369622  MEMB      93              0.0000000000
     10583        93  POPC      H10Y          -57.5187686635       11.8743343043        9.1108722761  MEMB      93              0.0000000000
     10584        93  POPC      C311          -56.0010468798       12.8702512381        7.9681230545  MEMB      93              0.0000000000
     10585        93  POPC      H11X          -55.3109753715       12.0058735173        8.0728774742  MEMB      93              0.0000000000
     10586        93  POPC      H11Y          -55.3524421638       13.7722568266        7.9637928239  MEMB      93              0.0000000000
     10587        93  POPC      C312          -56.6002083881       12.9210212996        6.5155207240  MEMB      93              0.0000000000
     10588        93  POPC      H12X          -56.8284587751       13.9709479020        6.2328966219  MEMB      93              0.0000000000
     10589        93  POPC      H12Y          -57.4820483028       12.2548668857        6.4018679148  MEMB      93              0.0000000000
     10590        93  POPC      C313          -55.5904587967       12.4253609340        5.4103647580  MEMB      93              0.0000000000
     10591        93  POPC      H13X          -55.4266404461       11.3633597919        5.6925677122  MEMB      93              0.0000000000
     10592        93  POPC      H13Y          -54.6754410197       13.0525051999        5.3490996973  MEMB      93              0.0000000000
     10593        93  POPC      C314          -56.2073267483       12.4198780153        4.0441628526  MEMB      93              0.0000000000
     10594        93  POPC      H14X          -56.3881945074       13.4341599526        3.6284225416  MEMB      93              0.0000000000
     10595        93  POPC      H14Y          -57.1609593321       11.8725496473        4.2033419354  MEMB      93              0.0000000000
     10596        93  POPC      C315          -55.1717627988       11.7944809970        3.0412718329  MEMB      93              0.0000000000
     10597        93  POPC      H15X          -54.6452667522       10.8818614743        3.3937618633  MEMB      93              0.0000000000
     10598        93  POPC      H15Y          -54.4083711148       12.5570357829        2.7765749361  MEMB      93              0.0000000000
     10599        93  POPC      C316          -55.7259225032       11.5137237444        1.6399277330  MEMB      93              0.0000000000
     10600        93  POPC      H16X          -55.0158161934       10.9458000795        1.0015448825  MEMB      93              0.0000000000
     10601        93  POPC      H16Y          -56.0265302403       12.3815765043        1.0147974982  MEMB      93              0.0000000000
     10602        93  POPC      H16Z          -56.6575955508       10.9108208187        1.6929750245  MEMB      93              0.0000000000
     10603        94  POPC      N              -3.0483840235       53.8536274785       19.0166549593  MEMB      94              0.0000000000
     10604        94  POPC      C12            -3.0623920246       55.1074390756       18.1820909324  MEMB      94              0.0000000000
     10605        94  POPC      H12A           -3.8605204383       55.0944801871       17.4546137011  MEMB      94              0.0000000000
     10606        94  POPC      H12B           -2.1988262014       55.0188460717       17.5395916285  MEMB      94              0.0000000000
     10607        94  POPC      C13            -3.9465429256       53.9163352532       20.2293044455  MEMB      94              0.0000000000
     10608        94  POPC      H13A           -4.9261590754       53.8775728878       19.7762595790  MEMB      94              0.0000000000
     10609        94  POPC      H13B           -3.8509836726       52.9413589274       20.6839357218  MEMB      94              0.0000000000
     10610        94  POPC      H13C           -3.7597656239       54.7367141746       20.9064253420  MEMB      94              0.0000000000
     10611        94  POPC      C14            -3.5568227163       52.7251546131       18.1432357549  MEMB      94              0.0000000000
     10612        94  POPC      H14A           -4.6197423262       52.8704193376       18.0187362340  MEMB      94              0.0000000000
     10613        94  POPC      H14B           -3.1306644055       52.7375957165       17.1509483192  MEMB      94              0.0000000000
     10614        94  POPC      H14C           -3.4441479444       51.7523265536       18.5985487609  MEMB      94              0.0000000000
     10615        94  POPC      C15            -1.6524307312       53.4982480853       19.6060300982  MEMB      94              0.0000000000
     10616        94  POPC      H15A           -1.4533112955       54.3441773799       20.2472436857  MEMB      94              0.0000000000
     10617        94  POPC      H15B           -0.9103931269       53.4630599470       18.8221028513  MEMB      94              0.0000000000
     10618        94  POPC      H15C           -1.6398358780       52.5077316830       20.0362844139  MEMB      94              0.0000000000
     10619        94  POPC      C11            -2.9811783089       56.4774211383       18.9075742063  MEMB      94              0.0000000000
     10620        94  POPC      H11A           -3.8268578570       56.5083469958       19.6274290043  MEMB      94              0.0000000000
     10621        94  POPC      H11B           -3.2493065717       57.2452997143       18.1507448109  MEMB      94              0.0000000000
     10622        94  POPC      P              -0.6454451961       57.6551658564       19.0026383114  MEMB      94              0.0000000000
     10623        94  POPC      O13             0.6492434480       57.5162039347       19.7466635859  MEMB      94              0.0000000000
     10624        94  POPC      O14            -1.2270309051       59.0433835005       19.0032198757  MEMB      94              0.0000000000
     10625        94  POPC      O12            -1.7604011259       56.7568178838       19.6706285467  MEMB      94              0.0000000000
     10626        94  POPC      O11            -0.5656965066       57.1503352942       17.4919592837  MEMB      94              0.0000000000
     10627        94  POPC      C1              0.0268356700       58.0138522438       16.5603916412  MEMB      94              0.0000000000
     10628        94  POPC      HA              0.9215985503       58.5843059454       16.8894851124  MEMB      94              0.0000000000
     10629        94  POPC      HB             -0.6219982308       58.8205672186       16.1572210278  MEMB      94              0.0000000000
     10630        94  POPC      C2              0.3446840545       57.3345540676       15.1922446311  MEMB      94              0.0000000000
     10631        94  POPC      HS              0.4755669022       58.1300019355       14.4277488931  MEMB      94              0.0000000000
     10632        94  POPC      O21            -0.6452498508       56.3580568936       14.8652532697  MEMB      94              0.0000000000
     10633        94  POPC      C21            -1.7589417503       56.8275300839       14.3487239416  MEMB      94              0.0000000000
     10634        94  POPC      O22            -2.0008063823       57.9165127451       13.9566471934  MEMB      94              0.0000000000
     10635        94  POPC      C22            -2.6972318636       55.5997749634       14.2517473157  MEMB      94              0.0000000000
     10636        94  POPC      H2R            -2.9294977008       55.2665438030       15.2858318647  MEMB      94              0.0000000000
     10637        94  POPC      H2S            -2.2158528868       54.7720770517       13.6882660410  MEMB      94              0.0000000000
     10638        94  POPC      C3              1.7867583298       56.6763570900       15.2127625042  MEMB      94              0.0000000000
     10639        94  POPC      HX              1.8606552932       55.9321230056       16.0343315264  MEMB      94              0.0000000000
     10640        94  POPC      HY              2.5193623201       57.5012922718       15.3435068103  MEMB      94              0.0000000000
     10641        94  POPC      O31             1.9658147330       55.9821198018       13.9309514251  MEMB      94              0.0000000000
     10642        94  POPC      C31             2.4680265033       56.7127079520       12.9188984927  MEMB      94              0.0000000000
     10643        94  POPC      O32             2.9747337492       57.7916486689       12.9875972791  MEMB      94              0.0000000000
     10644        94  POPC      C32             2.4238736554       55.8696608686       11.6082014816  MEMB      94              0.0000000000
     10645        94  POPC      H2X             2.1734338722       54.8401435762       11.9424100971  MEMB      94              0.0000000000
     10646        94  POPC      H2Y             3.4449274261       55.8752966987       11.1703221276  MEMB      94              0.0000000000
     10647        94  POPC      C23            -3.9387155585       56.0339989046       13.4170493655  MEMB      94              0.0000000000
     10648        94  POPC      H3R            -4.3326853162       56.9647594314       13.8783449900  MEMB      94              0.0000000000
     10649        94  POPC      H3S            -4.6312022991       55.2095710732       13.6910966665  MEMB      94              0.0000000000
     10650        94  POPC      C24            -3.8153564854       56.2903914760       11.8862782073  MEMB      94              0.0000000000
     10651        94  POPC      H4R            -3.8038207623       55.3616717828       11.2766325739  MEMB      94              0.0000000000
     10652        94  POPC      H4S            -2.9371249306       56.9490599320       11.7154381618  MEMB      94              0.0000000000
     10653        94  POPC      C25            -5.0433797201       57.0717025946       11.2679651598  MEMB      94              0.0000000000
     10654        94  POPC      H5R            -5.1576952236       58.0899454705       11.6974231597  MEMB      94              0.0000000000
     10655        94  POPC      H5S            -5.9720573728       56.4924831551       11.4587104886  MEMB      94              0.0000000000
     10656        94  POPC      C26            -4.9279749575       57.2302242368        9.7281519944  MEMB      94              0.0000000000
     10657        94  POPC      H6R            -4.9201121153       56.2612775200        9.1846432763  MEMB      94              0.0000000000
     10658        94  POPC      H6S            -3.9197417967       57.6880006890        9.6374440198  MEMB      94              0.0000000000
     10659        94  POPC      C27            -6.0108469768       58.2635923952        9.1570365564  MEMB      94              0.0000000000
     10660        94  POPC      H7R            -5.9003290890       59.2383520151        9.6785255569  MEMB      94              0.0000000000
     10661        94  POPC      H7S            -7.0479928131       57.9558566746        9.4099172082  MEMB      94              0.0000000000
     10662        94  POPC      C28            -5.7321864849       58.5922694749        7.6799731704  MEMB      94              0.0000000000
     10663        94  POPC      H8R            -4.6655492708       58.8398740791        7.4920944756  MEMB      94              0.0000000000
     10664        94  POPC      H8S            -6.4277080322       59.4284829702        7.4534389053  MEMB      94              0.0000000000
     10665        94  POPC      C29            -6.0939403862       57.3749094245        6.8346200190  MEMB      94              0.0000000000
     10666        94  POPC      H91            -6.2931600640       56.4710385982        7.4290344688  MEMB      94              0.0000000000
     10667        94  POPC      C210           -6.1601168401       57.2068299622        5.4944392212  MEMB      94              0.0000000000
     10668        94  POPC      H101           -6.3774984759       56.2119029229        5.0786687146  MEMB      94              0.0000000000
     10669        94  POPC      C211           -5.9084573527       58.3424965881        4.5598860656  MEMB      94              0.0000000000
     10670        94  POPC      H11R           -6.3746807889       59.2623756543        4.9731409445  MEMB      94              0.0000000000
     10671        94  POPC      H11S           -6.5843755994       58.0590450802        3.7249545418  MEMB      94              0.0000000000
     10672        94  POPC      C212           -4.4519497372       58.6019014139        4.1878292983  MEMB      94              0.0000000000
     10673        94  POPC      H12R           -3.8809409086       58.7479670687        5.1296016903  MEMB      94              0.0000000000
     10674        94  POPC      H12S           -4.3574697917       59.5939349008        3.6966432303  MEMB      94              0.0000000000
     10675        94  POPC      C213           -3.8954877500       57.4572744145        3.3413452204  MEMB      94              0.0000000000
     10676        94  POPC      H13R           -4.4569518783       57.0791563984        2.4603752671  MEMB      94              0.0000000000
     10677        94  POPC      H13S           -3.8533636564       56.6629469726        4.1169675953  MEMB      94              0.0000000000
     10678        94  POPC      C214           -2.4680484906       57.7015647496        2.7911390586  MEMB      94              0.0000000000
     10679        94  POPC      H14R           -2.2096315556       56.8480929422        2.1284713850  MEMB      94              0.0000000000
     10680        94  POPC      H14S           -1.6611680585       57.7456774804        3.5535812634  MEMB      94              0.0000000000
     10681        94  POPC      C215           -2.1682598565       58.9571485432        1.9730549856  MEMB      94              0.0000000000
     10682        94  POPC      H15R           -1.0600005995       58.9922750278        2.0426862864  MEMB      94              0.0000000000
     10683        94  POPC      H15S           -2.6306151144       59.9069740579        2.3171186727  MEMB      94              0.0000000000
     10684        94  POPC      C216           -2.6005691112       58.9274127197        0.5838804054  MEMB      94              0.0000000000
     10685        94  POPC      H16R           -3.7086555309       58.9873804937        0.5303160416  MEMB      94              0.0000000000
     10686        94  POPC      H16S           -2.4274311175       57.9504198944        0.0840507824  MEMB      94              0.0000000000
     10687        94  POPC      C217           -1.9536307488       60.0751586301       -0.2671610964  MEMB      94              0.0000000000
     10688        94  POPC      H17R           -0.8609551019       59.8752509531       -0.2876004525  MEMB      94              0.0000000000
     10689        94  POPC      H17S           -2.2287500521       61.0433805966        0.2031324297  MEMB      94              0.0000000000
     10690        94  POPC      C218           -2.3907263527       60.1931999708       -1.7585715833  MEMB      94              0.0000000000
     10691        94  POPC      H18R           -1.8212776899       59.4979831372       -2.4118110840  MEMB      94              0.0000000000
     10692        94  POPC      H18S           -2.1115651934       61.2185389634       -2.0827166840  MEMB      94              0.0000000000
     10693        94  POPC      H18T           -3.4478734374       59.9035959415       -1.9399289724  MEMB      94              0.0000000000
     10694        94  POPC      C33             1.5942432934       56.3509279391       10.4402021749  MEMB      94              0.0000000000
     10695        94  POPC      H3X             2.0951947362       56.3900299994        9.4493243214  MEMB      94              0.0000000000
     10696        94  POPC      H3Y             1.1593350046       57.3546532724       10.6343952705  MEMB      94              0.0000000000
     10697        94  POPC      C34             0.1624058894       55.5585820697       10.3913775011  MEMB      94              0.0000000000
     10698        94  POPC      H4X            -0.2981133654       55.7665935679       11.3808086197  MEMB      94              0.0000000000
     10699        94  POPC      H4Y             0.4596516723       54.5499459204       10.0327425265  MEMB      94              0.0000000000
     10700        94  POPC      C35            -0.8188503508       56.1444195731        9.3337047392  MEMB      94              0.0000000000
     10701        94  POPC      H5X            -0.8894599232       57.1992753109        9.6751933708  MEMB      94              0.0000000000
     10702        94  POPC      H5Y            -1.8089947431       55.6491074208        9.4264460926  MEMB      94              0.0000000000
     10703        94  POPC      C36            -0.3319250410       55.7552066878        7.8776121520  MEMB      94              0.0000000000
     10704        94  POPC      H6X            -0.0734367157       54.6764628573        7.9393921137  MEMB      94              0.0000000000
     10705        94  POPC      H6Y             0.6638523301       56.2330505338        7.7575557420  MEMB      94              0.0000000000
     10706        94  POPC      C37            -1.2763740546       56.1298331446        6.7886051993  MEMB      94              0.0000000000
     10707        94  POPC      H7X            -0.7913704522       56.1477592022        5.7892191165  MEMB      94              0.0000000000
     10708        94  POPC      H7Y            -1.7522923299       57.1235093820        6.9315400487  MEMB      94              0.0000000000
     10709        94  POPC      C38            -2.4901420538       55.1571150035        6.7497427017  MEMB      94              0.0000000000
     10710        94  POPC      H8X            -3.1856366892       55.4260372131        5.9261596293  MEMB      94              0.0000000000
     10711        94  POPC      H8Y            -3.0039748269       55.3570358967        7.7142783376  MEMB      94              0.0000000000
     10712        94  POPC      C39            -2.0860262350       53.6968278196        6.4355975199  MEMB      94              0.0000000000
     10713        94  POPC      H9X            -3.0564182206       53.1675169169        6.3238387177  MEMB      94              0.0000000000
     10714        94  POPC      H9Y            -1.4976663430       53.3869974941        7.3256306679  MEMB      94              0.0000000000
     10715        94  POPC      C310           -1.1843249139       53.3548978477        5.2225828658  MEMB      94              0.0000000000
     10716        94  POPC      H10X           -0.9841363953       52.2764883552        5.0457238712  MEMB      94              0.0000000000
     10717        94  POPC      H10Y           -0.1953392640       53.8490249123        5.3324315332  MEMB      94              0.0000000000
     10718        94  POPC      C311           -1.7266345851       53.7964703843        3.8098346261  MEMB      94              0.0000000000
     10719        94  POPC      H11X           -2.1552715015       54.8168773670        3.7130834389  MEMB      94              0.0000000000
     10720        94  POPC      H11Y           -2.6059445262       53.1345620229        3.6581352637  MEMB      94              0.0000000000
     10721        94  POPC      C312           -0.6969534342       53.7446279126        2.6110975875  MEMB      94              0.0000000000
     10722        94  POPC      H12X           -1.2899264125       53.6854243079        1.6734415826  MEMB      94              0.0000000000
     10723        94  POPC      H12Y           -0.2071754379       52.7536225987        2.7222149701  MEMB      94              0.0000000000
     10724        94  POPC      C313            0.3630953694       54.9146641488        2.5337294639  MEMB      94              0.0000000000
     10725        94  POPC      H13X            1.2747337056       54.8161262622        3.1610465416  MEMB      94              0.0000000000
     10726        94  POPC      H13Y           -0.1535716825       55.8682778817        2.7745543843  MEMB      94              0.0000000000
     10727        94  POPC      C314            0.8947743168       55.0571846566        1.0953963697  MEMB      94              0.0000000000
     10728        94  POPC      H14X            0.1266129202       55.0297363532        0.2932145216  MEMB      94              0.0000000000
     10729        94  POPC      H14Y            1.4995035632       54.1634143246        0.8312015949  MEMB      94              0.0000000000
     10730        94  POPC      C315            1.7144404994       56.3679593640        0.7229818133  MEMB      94              0.0000000000
     10731        94  POPC      H15X            0.9436517479       57.1659785491        0.7810432465  MEMB      94              0.0000000000
     10732        94  POPC      H15Y            1.9834982891       56.1280749319       -0.3279143546  MEMB      94              0.0000000000
     10733        94  POPC      C316            2.9570269401       56.5926407333        1.5981278098  MEMB      94              0.0000000000
     10734        94  POPC      H16X            3.6029633443       55.7061253782        1.7747027572  MEMB      94              0.0000000000
     10735        94  POPC      H16Y            2.6366381089       57.0320250029        2.5669492020  MEMB      94              0.0000000000
     10736        94  POPC      H16Z            3.6255240117       57.3602852203        1.1529824521  MEMB      94              0.0000000000
     10737        95  POPC      N             -45.8198021875       24.2919913332       18.8231460820  MEMB      95              0.0000000000
     10738        95  POPC      C12           -47.0630117161       24.0303947206       18.0178563919  MEMB      95              0.0000000000
     10739        95  POPC      H12A          -46.6568692451       23.4297399853       17.2174426927  MEMB      95              0.0000000000
     10740        95  POPC      H12B          -47.3013156893       24.8696946887       17.3813134869  MEMB      95              0.0000000000
     10741        95  POPC      C13           -46.0169796878       25.3440663092       19.8296790227  MEMB      95              0.0000000000
     10742        95  POPC      H13A          -45.0540876421       25.6247085818       20.2302775113  MEMB      95              0.0000000000
     10743        95  POPC      H13B          -46.5386269238       26.1361566857       19.3130776637  MEMB      95              0.0000000000
     10744        95  POPC      H13C          -46.6266995439       24.8935699193       20.5988958863  MEMB      95              0.0000000000
     10745        95  POPC      C14           -45.2344025315       23.0429076041       19.4665996774  MEMB      95              0.0000000000
     10746        95  POPC      H14A          -45.0834465404       22.2786724225       18.7185644402  MEMB      95              0.0000000000
     10747        95  POPC      H14B          -44.3674447630       23.2852608220       20.0632982737  MEMB      95              0.0000000000
     10748        95  POPC      H14C          -45.8971847202       22.5975961540       20.1937981106  MEMB      95              0.0000000000
     10749        95  POPC      C15           -44.7702629660       24.7924212900       17.7106765745  MEMB      95              0.0000000000
     10750        95  POPC      H15A          -43.7849687436       24.5322785607       18.0683376410  MEMB      95              0.0000000000
     10751        95  POPC      H15B          -45.0211557328       25.7955767036       17.3990164313  MEMB      95              0.0000000000
     10752        95  POPC      H15C          -44.8917721571       24.2607938582       16.7784706880  MEMB      95              0.0000000000
     10753        95  POPC      C11           -48.4321323568       23.4169700990       18.7040339312  MEMB      95              0.0000000000
     10754        95  POPC      H11A          -48.0682707063       22.5628433799       19.3142742980  MEMB      95              0.0000000000
     10755        95  POPC      H11B          -48.9921530081       23.0576124634       17.8143374412  MEMB      95              0.0000000000
     10756        95  POPC      P             -50.6176821340       24.6860518826       19.3731446819  MEMB      95              0.0000000000
     10757        95  POPC      O13           -50.7901148736       26.0774543600       19.8726716233  MEMB      95              0.0000000000
     10758        95  POPC      O14           -51.4244408710       23.5486594762       19.8993621330  MEMB      95              0.0000000000
     10759        95  POPC      O12           -49.0474437800       24.3469958839       19.5240843821  MEMB      95              0.0000000000
     10760        95  POPC      O11           -50.7912951138       24.7673719853       17.7787455024  MEMB      95              0.0000000000
     10761        95  POPC      C1            -50.2340631870       25.9568726056       17.1063315213  MEMB      95              0.0000000000
     10762        95  POPC      HA            -49.2461423276       25.6240920664       16.7221565215  MEMB      95              0.0000000000
     10763        95  POPC      HB            -49.8883714846       26.6953167937       17.8609959137  MEMB      95              0.0000000000
     10764        95  POPC      C2            -51.0501153441       26.5672265917       15.9825155346  MEMB      95              0.0000000000
     10765        95  POPC      HS            -51.9336076000       27.0928328131       16.4038233444  MEMB      95              0.0000000000
     10766        95  POPC      O21           -51.5182246580       25.5291099612       15.1052139396  MEMB      95              0.0000000000
     10767        95  POPC      C21           -52.6764759282       25.6827087871       14.5861025247  MEMB      95              0.0000000000
     10768        95  POPC      O22           -53.4345858601       26.6386499312       14.7390119808  MEMB      95              0.0000000000
     10769        95  POPC      C22           -52.9011846030       24.4195889699       13.7402193751  MEMB      95              0.0000000000
     10770        95  POPC      H2R           -54.0018859146       24.2736844279       13.7016190366  MEMB      95              0.0000000000
     10771        95  POPC      H2S           -52.4973673365       23.5323229943       14.2731470657  MEMB      95              0.0000000000
     10772        95  POPC      C3            -50.1805271605       27.5345168340       15.1905200924  MEMB      95              0.0000000000
     10773        95  POPC      HX            -49.6804136930       28.2369105550       15.8911272562  MEMB      95              0.0000000000
     10774        95  POPC      HY            -50.7996829200       28.0608691196       14.4329445342  MEMB      95              0.0000000000
     10775        95  POPC      O31           -49.1950661148       26.8142660295       14.4318976754  MEMB      95              0.0000000000
     10776        95  POPC      C31           -47.8731470673       26.7856888040       14.7964068291  MEMB      95              0.0000000000
     10777        95  POPC      O32           -47.3711592164       27.5772095922       15.6269689214  MEMB      95              0.0000000000
     10778        95  POPC      C32           -47.0971349085       25.6574318101       14.0699001345  MEMB      95              0.0000000000
     10779        95  POPC      H2X           -47.4284616263       24.7753556991       14.6585299401  MEMB      95              0.0000000000
     10780        95  POPC      H2Y           -46.0043658715       25.8193802326       14.1880072831  MEMB      95              0.0000000000
     10781        95  POPC      C23           -52.5983342999       24.6915703776       12.2606112531  MEMB      95              0.0000000000
     10782        95  POPC      H3R           -53.0884894650       25.6352232108       11.9387595079  MEMB      95              0.0000000000
     10783        95  POPC      H3S           -53.0801986269       23.8164989651       11.7744240645  MEMB      95              0.0000000000
     10784        95  POPC      C24           -51.1167792183       24.8010075702       11.9090017334  MEMB      95              0.0000000000
     10785        95  POPC      H4R           -50.7808285228       23.7928178367       11.5849464221  MEMB      95              0.0000000000
     10786        95  POPC      H4S           -50.5711644382       25.0257607498       12.8503365816  MEMB      95              0.0000000000
     10787        95  POPC      C25           -50.7935249844       25.7181546548       10.7993883691  MEMB      95              0.0000000000
     10788        95  POPC      H5R           -51.4989020735       25.3445232604       10.0266245289  MEMB      95              0.0000000000
     10789        95  POPC      H5S           -49.7753103788       25.4543987091       10.4416277455  MEMB      95              0.0000000000
     10790        95  POPC      C26           -50.8892030635       27.1898834473       11.1513319865  MEMB      95              0.0000000000
     10791        95  POPC      H6R           -50.4971733995       27.4416094137       12.1599287317  MEMB      95              0.0000000000
     10792        95  POPC      H6S           -51.9586784227       27.4690724937       11.2635679323  MEMB      95              0.0000000000
     10793        95  POPC      C27           -50.1710385234       28.0311525296       10.0656503032  MEMB      95              0.0000000000
     10794        95  POPC      H7R           -49.1283900759       28.0131844168       10.4489031196  MEMB      95              0.0000000000
     10795        95  POPC      H7S           -50.5839929143       29.0537489940       10.2001358295  MEMB      95              0.0000000000
     10796        95  POPC      C28           -50.4644743961       27.6142628532        8.5652897149  MEMB      95              0.0000000000
     10797        95  POPC      H8R           -50.1350904172       26.5621402564        8.4279384140  MEMB      95              0.0000000000
     10798        95  POPC      H8S           -49.6991316281       28.1543147326        7.9678659573  MEMB      95              0.0000000000
     10799        95  POPC      C29           -51.9697340425       27.6665452180        8.0862402638  MEMB      95              0.0000000000
     10800        95  POPC      H91           -52.7214957240       27.7892333979        8.8798401897  MEMB      95              0.0000000000
     10801        95  POPC      C210          -52.3552197495       27.8655566094        6.8288513098  MEMB      95              0.0000000000
     10802        95  POPC      H101          -53.4381280632       27.6961572264        6.7360434337  MEMB      95              0.0000000000
     10803        95  POPC      C211          -51.4542183571       28.0930237909        5.6581779701  MEMB      95              0.0000000000
     10804        95  POPC      H11R          -50.4563972435       28.4543685767        5.9869695677  MEMB      95              0.0000000000
     10805        95  POPC      H11S          -51.8322790173       28.9632368691        5.0801474443  MEMB      95              0.0000000000
     10806        95  POPC      C212          -51.4602638583       26.8862004967        4.6692576845  MEMB      95              0.0000000000
     10807        95  POPC      H12R          -52.4979525023       26.6064235790        4.3877471743  MEMB      95              0.0000000000
     10808        95  POPC      H12S          -51.0658790064       25.9588188166        5.1369595777  MEMB      95              0.0000000000
     10809        95  POPC      C213          -50.6613961166       26.9731952099        3.3226282147  MEMB      95              0.0000000000
     10810        95  POPC      H13R          -50.9813974354       26.1076489532        2.7039602018  MEMB      95              0.0000000000
     10811        95  POPC      H13S          -49.6344190383       26.8415241948        3.7254949200  MEMB      95              0.0000000000
     10812        95  POPC      C214          -50.7101237678       28.3093146405        2.5774150520  MEMB      95              0.0000000000
     10813        95  POPC      H14R          -49.7131219579       28.4067223560        2.0969766226  MEMB      95              0.0000000000
     10814        95  POPC      H14S          -50.6985323906       29.1446565876        3.3098023142  MEMB      95              0.0000000000
     10815        95  POPC      C215          -51.7673750071       28.4185726032        1.4123124412  MEMB      95              0.0000000000
     10816        95  POPC      H15R          -51.9957171400       29.4470818109        1.0596805250  MEMB      95              0.0000000000
     10817        95  POPC      H15S          -52.6883284052       28.0030497977        1.8743810166  MEMB      95              0.0000000000
     10818        95  POPC      C216          -51.5408487886       27.4494335337        0.2449996945  MEMB      95              0.0000000000
     10819        95  POPC      H16R          -52.4934769348       27.2492713733       -0.2904956849  MEMB      95              0.0000000000
     10820        95  POPC      H16S          -51.3943716477       26.4024594034        0.5866275471  MEMB      95              0.0000000000
     10821        95  POPC      C217          -50.3574893983       27.8861856773       -0.7263669227  MEMB      95              0.0000000000
     10822        95  POPC      H17R          -49.4038055353       27.7843953212       -0.1656103172  MEMB      95              0.0000000000
     10823        95  POPC      H17S          -50.4457638824       28.9488605502       -1.0382176069  MEMB      95              0.0000000000
     10824        95  POPC      C218          -50.2415822971       26.9033874271       -1.9286914642  MEMB      95              0.0000000000
     10825        95  POPC      H18R          -49.8626979956       25.9519646970       -1.4979215676  MEMB      95              0.0000000000
     10826        95  POPC      H18S          -49.5348628285       27.2959003336       -2.6907940026  MEMB      95              0.0000000000
     10827        95  POPC      H18T          -51.1824547430       26.5349902975       -2.3906031814  MEMB      95              0.0000000000
     10828        95  POPC      C33           -47.3374469323       25.5188033065       12.5670940551  MEMB      95              0.0000000000
     10829        95  POPC      H3X           -47.2384056562       26.5055882414       12.0663269734  MEMB      95              0.0000000000
     10830        95  POPC      H3Y           -48.3758083271       25.1242399687       12.5459684472  MEMB      95              0.0000000000
     10831        95  POPC      C34           -46.5361941460       24.4400476624       11.8564247368  MEMB      95              0.0000000000
     10832        95  POPC      H4X           -46.7917205491       23.4126639842       12.1933372102  MEMB      95              0.0000000000
     10833        95  POPC      H4Y           -45.4659947925       24.6948438334       12.0115798439  MEMB      95              0.0000000000
     10834        95  POPC      C35           -46.8024874525       24.3342293883       10.3241443515  MEMB      95              0.0000000000
     10835        95  POPC      H5X           -47.9053312752       24.2806995490       10.2008925853  MEMB      95              0.0000000000
     10836        95  POPC      H5Y           -46.3407537383       23.4190526013        9.8956884255  MEMB      95              0.0000000000
     10837        95  POPC      C36           -46.4265781288       25.5323736781        9.4754746789  MEMB      95              0.0000000000
     10838        95  POPC      H6X           -45.3678361948       25.7922294320        9.6896276837  MEMB      95              0.0000000000
     10839        95  POPC      H6Y           -47.0114122257       26.4127346649        9.8178994822  MEMB      95              0.0000000000
     10840        95  POPC      C37           -46.5352100423       25.3930416778        7.9613136563  MEMB      95              0.0000000000
     10841        95  POPC      H7X           -45.9619969035       24.4491566752        7.8395395299  MEMB      95              0.0000000000
     10842        95  POPC      H7Y           -45.9957961051       26.2036493202        7.4262733843  MEMB      95              0.0000000000
     10843        95  POPC      C38           -47.9788755843       25.2367864040        7.3827625838  MEMB      95              0.0000000000
     10844        95  POPC      H8X           -48.1607474611       26.0264630668        6.6227267872  MEMB      95              0.0000000000
     10845        95  POPC      H8Y           -48.6811282761       25.2726389045        8.2429232951  MEMB      95              0.0000000000
     10846        95  POPC      C39           -48.1077762371       23.9421303211        6.7156934485  MEMB      95              0.0000000000
     10847        95  POPC      H9X           -49.1651819264       23.6387875642        6.5601382033  MEMB      95              0.0000000000
     10848        95  POPC      H9Y           -47.8032544398       23.0885438879        7.3583263981  MEMB      95              0.0000000000
     10849        95  POPC      C310          -47.4155000752       23.8965443319        5.3317193545  MEMB      95              0.0000000000
     10850        95  POPC      H10X          -47.0093957950       22.8699367513        5.2073125619  MEMB      95              0.0000000000
     10851        95  POPC      H10Y          -46.6717977917       24.7190286140        5.2628167532  MEMB      95              0.0000000000
     10852        95  POPC      C311          -48.3591492490       24.0905074487        4.1587070393  MEMB      95              0.0000000000
     10853        95  POPC      H11X          -49.0256974285       24.9520276749        4.3773787410  MEMB      95              0.0000000000
     10854        95  POPC      H11Y          -49.0049967141       23.2044851645        3.9793567382  MEMB      95              0.0000000000
     10855        95  POPC      C312          -47.5387738921       24.2841760433        2.8132825288  MEMB      95              0.0000000000
     10856        95  POPC      H12X          -46.8722188748       23.4011099288        2.9143766772  MEMB      95              0.0000000000
     10857        95  POPC      H12Y          -46.9553664471       25.2282817352        2.8644817799  MEMB      95              0.0000000000
     10858        95  POPC      C313          -48.4521469653       24.2249327880        1.6090569012  MEMB      95              0.0000000000
     10859        95  POPC      H13X          -49.3360175780       24.8980538603        1.6103984886  MEMB      95              0.0000000000
     10860        95  POPC      H13Y          -48.7039832228       23.1530614306        1.4607618282  MEMB      95              0.0000000000
     10861        95  POPC      C314          -47.6298955560       24.5579198067        0.3243024653  MEMB      95              0.0000000000
     10862        95  POPC      H14X          -47.4053685135       25.6304657474        0.5074800270  MEMB      95              0.0000000000
     10863        95  POPC      H14Y          -48.3223430786       24.4942987523       -0.5421780664  MEMB      95              0.0000000000
     10864        95  POPC      C315          -46.4217479937       23.7304404298       -0.0424445475  MEMB      95              0.0000000000
     10865        95  POPC      H15X          -46.7885099938       22.7441375096       -0.3988330855  MEMB      95              0.0000000000
     10866        95  POPC      H15Y          -45.7651397735       23.6246427298        0.8474960057  MEMB      95              0.0000000000
     10867        95  POPC      C316          -45.6515139494       24.4225685774       -1.1274401138  MEMB      95              0.0000000000
     10868        95  POPC      H16X          -44.7107117861       23.9117255246       -1.4245125668  MEMB      95              0.0000000000
     10869        95  POPC      H16Y          -45.3763015449       25.4640415507       -0.8555708280  MEMB      95              0.0000000000
     10870        95  POPC      H16Z          -46.3837124761       24.5131982012       -1.9580983893  MEMB      95              0.0000000000
     10871        96  POPC      N               7.0022831681       56.8629771730       18.9974826337  MEMB      96              0.0000000000
     10872        96  POPC      C12             8.0019563933       55.8151986642       18.5424925660  MEMB      96              0.0000000000
     10873        96  POPC      H12A            8.9325783405       56.2874452853       18.2644170485  MEMB      96              0.0000000000
     10874        96  POPC      H12B            7.5637919082       55.5023344480       17.6062618119  MEMB      96              0.0000000000
     10875        96  POPC      C13             5.5640123722       56.3537453997       18.9641835708  MEMB      96              0.0000000000
     10876        96  POPC      H13A            5.4632948366       55.4715959483       19.5790560542  MEMB      96              0.0000000000
     10877        96  POPC      H13B            4.8244898601       57.0300361625       19.3668465994  MEMB      96              0.0000000000
     10878        96  POPC      H13C            5.3657488041       56.2087013910       17.9124926144  MEMB      96              0.0000000000
     10879        96  POPC      C14             7.4225888009       57.3236761033       20.4116280982  MEMB      96              0.0000000000
     10880        96  POPC      H14A            6.7566316285       58.0326577362       20.8809318227  MEMB      96              0.0000000000
     10881        96  POPC      H14B            7.2738512003       56.5079502097       21.1036313262  MEMB      96              0.0000000000
     10882        96  POPC      H14C            8.3937117662       57.7845752221       20.3072618757  MEMB      96              0.0000000000
     10883        96  POPC      C15             6.9949096169       58.0639073121       18.0985099198  MEMB      96              0.0000000000
     10884        96  POPC      H15A            8.0190712609       58.4066487329       18.1031381362  MEMB      96              0.0000000000
     10885        96  POPC      H15B            6.2806164812       58.7700137327       18.4954974190  MEMB      96              0.0000000000
     10886        96  POPC      H15C            6.6628176944       57.9283390892       17.0798165462  MEMB      96              0.0000000000
     10887        96  POPC      C11             8.3452579137       54.5508424809       19.3653810572  MEMB      96              0.0000000000
     10888        96  POPC      H11A            8.9258197945       54.8911474486       20.2493841966  MEMB      96              0.0000000000
     10889        96  POPC      H11B            8.9866944393       53.9074493729       18.7259081490  MEMB      96              0.0000000000
     10890        96  POPC      P               6.6375791930       52.6696810851       18.9866827135  MEMB      96              0.0000000000
     10891        96  POPC      O13             5.1733495602       52.8492104552       18.6317677700  MEMB      96              0.0000000000
     10892        96  POPC      O14             7.0408794152       51.4160244713       19.6411146552  MEMB      96              0.0000000000
     10893        96  POPC      O12             7.1604180560       53.8686552189       19.7647920342  MEMB      96              0.0000000000
     10894        96  POPC      O11             7.3742585611       52.8983573429       17.5959649774  MEMB      96              0.0000000000
     10895        96  POPC      C1              8.2127600617       51.9086319747       16.9807159607  MEMB      96              0.0000000000
     10896        96  POPC      HA              7.6408155672       50.9728460410       16.8032186441  MEMB      96              0.0000000000
     10897        96  POPC      HB              9.1178729745       51.7813194090       17.6122880138  MEMB      96              0.0000000000
     10898        96  POPC      C2              8.6476751259       52.4305721136       15.5378410147  MEMB      96              0.0000000000
     10899        96  POPC      HS              9.3417890170       51.6683588509       15.1236453644  MEMB      96              0.0000000000
     10900        96  POPC      O21             9.2853214183       53.7020798682       15.5547368328  MEMB      96              0.0000000000
     10901        96  POPC      C21            10.5304185423       53.6867610339       16.0051654136  MEMB      96              0.0000000000
     10902        96  POPC      O22            11.1736631710       52.7339087692       16.3483892469  MEMB      96              0.0000000000
     10903        96  POPC      C22            10.8281817716       55.2081938715       16.0786251197  MEMB      96              0.0000000000
     10904        96  POPC      H2R            11.9085720755       55.4589850784       16.0139588271  MEMB      96              0.0000000000
     10905        96  POPC      H2S            10.7130793492       55.5666921275       17.1238768432  MEMB      96              0.0000000000
     10906        96  POPC      C3              7.4178449453       52.5802837245       14.5677658282  MEMB      96              0.0000000000
     10907        96  POPC      HX              6.7188562721       53.3609922938       14.9368595534  MEMB      96              0.0000000000
     10908        96  POPC      HY              6.8510119997       51.6372462917       14.4138118043  MEMB      96              0.0000000000
     10909        96  POPC      O31             7.9285442303       53.0761904117       13.3471711512  MEMB      96              0.0000000000
     10910        96  POPC      C31             8.5486979003       52.2991210993       12.6224090681  MEMB      96              0.0000000000
     10911        96  POPC      O32             8.8067300807       51.1368693609       12.7513408781  MEMB      96              0.0000000000
     10912        96  POPC      C32             8.8978199380       53.0530245801       11.3223001961  MEMB      96              0.0000000000
     10913        96  POPC      H2X             8.4458696449       54.0679402220       11.3194434406  MEMB      96              0.0000000000
     10914        96  POPC      H2Y             8.4143093806       52.4527289765       10.5221851598  MEMB      96              0.0000000000
     10915        96  POPC      C23            10.0935015735       56.0612793459       15.0032757919  MEMB      96              0.0000000000
     10916        96  POPC      H3R             8.9898529343       55.9881184503       15.1078153050  MEMB      96              0.0000000000
     10917        96  POPC      H3S            10.3507677834       55.6136074015       14.0195455829  MEMB      96              0.0000000000
     10918        96  POPC      C24            10.3271806768       57.5789141329       14.9911526151  MEMB      96              0.0000000000
     10919        96  POPC      H4R            10.9731249196       57.9002014657       15.8360502149  MEMB      96              0.0000000000
     10920        96  POPC      H4S             9.4101589261       58.2061181146       14.9885266280  MEMB      96              0.0000000000
     10921        96  POPC      C25            10.9823971897       58.1222867101       13.7134604979  MEMB      96              0.0000000000
     10922        96  POPC      H5R            11.9496987435       57.5758042277       13.7157051936  MEMB      96              0.0000000000
     10923        96  POPC      H5S            11.1083055895       59.2253838371       13.7540114718  MEMB      96              0.0000000000
     10924        96  POPC      C26            10.1871825655       57.6781620521       12.4327628516  MEMB      96              0.0000000000
     10925        96  POPC      H6R             9.1480742674       57.8669215330       12.7776467756  MEMB      96              0.0000000000
     10926        96  POPC      H6S            10.3311817987       56.6048654213       12.1845300588  MEMB      96              0.0000000000
     10927        96  POPC      C27            10.5175467826       58.4495953235       11.1558647325  MEMB      96              0.0000000000
     10928        96  POPC      H7R            11.5502123069       58.1204051600       10.9118220934  MEMB      96              0.0000000000
     10929        96  POPC      H7S            10.6077526499       59.5392091650       11.3531610112  MEMB      96              0.0000000000
     10930        96  POPC      C28             9.5479172775       58.2845822098        9.9144535919  MEMB      96              0.0000000000
     10931        96  POPC      H8R             9.4055413665       57.1970184588        9.7376631024  MEMB      96              0.0000000000
     10932        96  POPC      H8S            10.0053871019       58.7547283517        9.0177903824  MEMB      96              0.0000000000
     10933        96  POPC      C29             8.1700702094       58.8632584059       10.2663810286  MEMB      96              0.0000000000
     10934        96  POPC      H91             8.0321658365       59.9487784107       10.3787571468  MEMB      96              0.0000000000
     10935        96  POPC      C210            7.0509798697       58.1309518471       10.3246578377  MEMB      96              0.0000000000
     10936        96  POPC      H101            6.1540623062       58.7203444903       10.5658125859  MEMB      96              0.0000000000
     10937        96  POPC      C211            6.8030572547       56.6489634814       10.1891248550  MEMB      96              0.0000000000
     10938        96  POPC      H11R            6.3067735035       56.1724483226       11.0614525824  MEMB      96              0.0000000000
     10939        96  POPC      H11S            7.7593450655       56.0847944343       10.1497770217  MEMB      96              0.0000000000
     10940        96  POPC      C212            5.8357784845       56.3646903395        9.0510297917  MEMB      96              0.0000000000
     10941        96  POPC      H12R            4.9076544008       56.9744324595        9.0845164558  MEMB      96              0.0000000000
     10942        96  POPC      H12S            5.4387529920       55.3393108896        9.2100541623  MEMB      96              0.0000000000
     10943        96  POPC      C213            6.4703717543       56.5906481699        7.6253941995  MEMB      96              0.0000000000
     10944        96  POPC      H13R            7.2159407354       55.8183676752        7.3389837796  MEMB      96              0.0000000000
     10945        96  POPC      H13S            7.0268148788       57.5521202009        7.6091580187  MEMB      96              0.0000000000
     10946        96  POPC      C214            5.4526474475       56.7206030707        6.4965072179  MEMB      96              0.0000000000
     10947        96  POPC      H14R            4.8748411030       57.6652168726        6.5868690911  MEMB      96              0.0000000000
     10948        96  POPC      H14S            4.8143472224       55.8201018231        6.6229653575  MEMB      96              0.0000000000
     10949        96  POPC      C215            6.0994611987       56.8442859087        5.0464137124  MEMB      96              0.0000000000
     10950        96  POPC      H15R            6.8549869881       56.0312950817        4.9959392749  MEMB      96              0.0000000000
     10951        96  POPC      H15S            6.6623441299       57.8002343583        4.9860248961  MEMB      96              0.0000000000
     10952        96  POPC      C216            5.0970567471       56.7474665506        3.7761427666  MEMB      96              0.0000000000
     10953        96  POPC      H16R            4.2199390033       57.3532422100        4.0892247859  MEMB      96              0.0000000000
     10954        96  POPC      H16S            4.7111190444       55.7103047094        3.6778162534  MEMB      96              0.0000000000
     10955        96  POPC      C217            5.5291667669       57.1633755689        2.3947925244  MEMB      96              0.0000000000
     10956        96  POPC      H17R            5.5138948172       58.2556811165        2.1924164214  MEMB      96              0.0000000000
     10957        96  POPC      H17S            4.8599404512       56.7908897284        1.5899874180  MEMB      96              0.0000000000
     10958        96  POPC      C218            6.9371310266       56.6363171446        2.0425098084  MEMB      96              0.0000000000
     10959        96  POPC      H18R            6.9836698800       55.5263147352        2.0354540843  MEMB      96              0.0000000000
     10960        96  POPC      H18S            7.7083478187       57.1133526316        2.6843693668  MEMB      96              0.0000000000
     10961        96  POPC      H18T            7.3584862147       56.9376894149        1.0596804540  MEMB      96              0.0000000000
     10962        96  POPC      C33            10.4096410714       53.1075806806       11.0535211270  MEMB      96              0.0000000000
     10963        96  POPC      H3X            10.6481316488       52.1311006485       10.5803089486  MEMB      96              0.0000000000
     10964        96  POPC      H3Y            10.9906405465       53.2918359188       11.9823973657  MEMB      96              0.0000000000
     10965        96  POPC      C34            10.8580618432       54.1840154950        9.9751598945  MEMB      96              0.0000000000
     10966        96  POPC      H4X            11.9565784920       54.0400624571        9.8923357619  MEMB      96              0.0000000000
     10967        96  POPC      H4Y            10.7267132362       55.2247837990       10.3410423186  MEMB      96              0.0000000000
     10968        96  POPC      C35            10.1974127097       54.1074662171        8.6127900594  MEMB      96              0.0000000000
     10969        96  POPC      H5X             9.1338329463       54.3940385386        8.7576872755  MEMB      96              0.0000000000
     10970        96  POPC      H5Y            10.3438164530       53.0205669926        8.4352036082  MEMB      96              0.0000000000
     10971        96  POPC      C36            11.0156921888       54.8790410954        7.5957451314  MEMB      96              0.0000000000
     10972        96  POPC      H6X            11.9978410997       54.3642065235        7.5275561790  MEMB      96              0.0000000000
     10973        96  POPC      H6Y            11.2618152807       55.8875594897        7.9915168371  MEMB      96              0.0000000000
     10974        96  POPC      C37            10.3294402831       54.9293997136        6.1817931399  MEMB      96              0.0000000000
     10975        96  POPC      H7X            10.8503272940       55.6936449948        5.5662227150  MEMB      96              0.0000000000
     10976        96  POPC      H7Y             9.3101292410       55.3547891291        6.3016670607  MEMB      96              0.0000000000
     10977        96  POPC      C38            10.1745074277       53.6291838604        5.4471225422  MEMB      96              0.0000000000
     10978        96  POPC      H8X             9.6871573025       52.8088275280        6.0161797985  MEMB      96              0.0000000000
     10979        96  POPC      H8Y            11.1868943767       53.2486356868        5.1930021336  MEMB      96              0.0000000000
     10980        96  POPC      C39             9.3177379953       53.8472956776        4.1450380881  MEMB      96              0.0000000000
     10981        96  POPC      H9X             9.8855025942       54.5444338901        3.4923797156  MEMB      96              0.0000000000
     10982        96  POPC      H9Y             8.3363037019       54.2742371971        4.4430791582  MEMB      96              0.0000000000
     10983        96  POPC      C310            9.0593167683       52.4336466544        3.5201168498  MEMB      96              0.0000000000
     10984        96  POPC      H10X            8.7027706137       51.6149180959        4.1810852983  MEMB      96              0.0000000000
     10985        96  POPC      H10Y           10.0362635514       52.1578570279        3.0686345801  MEMB      96              0.0000000000
     10986        96  POPC      C311            8.0553455840       52.6090021983        2.3689874275  MEMB      96              0.0000000000
     10987        96  POPC      H11X            8.1397104017       53.4854178003        1.6914190594  MEMB      96              0.0000000000
     10988        96  POPC      H11Y            7.0438853147       52.8042498887        2.7850978458  MEMB      96              0.0000000000
     10989        96  POPC      C312            7.9245135993       51.3659117724        1.3653310093  MEMB      96              0.0000000000
     10990        96  POPC      H12X            6.9774376344       51.3997888009        0.7854861224  MEMB      96              0.0000000000
     10991        96  POPC      H12Y            7.9053589381       50.3802561784        1.8776162585  MEMB      96              0.0000000000
     10992        96  POPC      C313            9.1637085399       51.3613213485        0.3072516213  MEMB      96              0.0000000000
     10993        96  POPC      H13X            9.1114157812       50.3602584653       -0.1717679785  MEMB      96              0.0000000000
     10994        96  POPC      H13Y           10.0256450387       51.3276819634        1.0074342231  MEMB      96              0.0000000000
     10995        96  POPC      C314            9.0113907011       52.4614745085       -0.6530019359  MEMB      96              0.0000000000
     10996        96  POPC      H14X            9.4821361100       53.3561946159       -0.1923547501  MEMB      96              0.0000000000
     10997        96  POPC      H14Y            7.9523642945       52.7380506091       -0.8434996541  MEMB      96              0.0000000000
     10998        96  POPC      C315            9.6854489841       52.0140465816       -1.9988343392  MEMB      96              0.0000000000
     10999        96  POPC      H15X            9.4341703250       52.8388284772       -2.6994883505  MEMB      96              0.0000000000
     11000        96  POPC      H15Y            9.1591822938       51.1495320812       -2.4570691938  MEMB      96              0.0000000000
     11001        96  POPC      C316           11.1487394877       51.6244351230       -1.9405954630  MEMB      96              0.0000000000
     11002        96  POPC      H16X           11.7277345671       52.4305266195       -1.4412938132  MEMB      96              0.0000000000
     11003        96  POPC      H16Y           11.5504744026       51.4466425580       -2.9610461832  MEMB      96              0.0000000000
     11004        96  POPC      H16Z           11.3735189569       50.6793784547       -1.4014619301  MEMB      96              0.0000000000
     11005        97  POPC      N             -15.0485419925      -55.7914699675       19.2117928175  MEMB      97              0.0000000000
     11006        97  POPC      C12           -13.5921717096      -55.1636436137       18.9619413067  MEMB      97              0.0000000000
     11007        97  POPC      H12A          -13.4907314580      -54.8099630294       17.9465497432  MEMB      97              0.0000000000
     11008        97  POPC      H12B          -12.9675780872      -56.0151121728       19.1884014387  MEMB      97              0.0000000000
     11009        97  POPC      C13           -16.0864318385      -54.7101037878       19.1362010929  MEMB      97              0.0000000000
     11010        97  POPC      H13A          -17.0463804117      -55.2009019838       19.1995725910  MEMB      97              0.0000000000
     11011        97  POPC      H13B          -15.8816186586      -53.9945356001       19.9187698539  MEMB      97              0.0000000000
     11012        97  POPC      H13C          -16.0367265003      -54.1484137019       18.2150964702  MEMB      97              0.0000000000
     11013        97  POPC      C14           -15.4815277752      -56.7896649875       18.1702655453  MEMB      97              0.0000000000
     11014        97  POPC      H14A          -16.5151940206      -57.0959154263       18.2346471477  MEMB      97              0.0000000000
     11015        97  POPC      H14B          -15.3772436427      -56.3348289586       17.1962793686  MEMB      97              0.0000000000
     11016        97  POPC      H14C          -14.8156518003      -57.6358709175       18.2536022431  MEMB      97              0.0000000000
     11017        97  POPC      C15           -15.0009780623      -56.5264258810       20.4898497562  MEMB      97              0.0000000000
     11018        97  POPC      H15A          -14.7537717603      -55.7759907443       21.2261486997  MEMB      97              0.0000000000
     11019        97  POPC      H15B          -14.2251228859      -57.2594173890       20.3250103734  MEMB      97              0.0000000000
     11020        97  POPC      H15C          -15.9955677369      -56.9289535543       20.6129877480  MEMB      97              0.0000000000
     11021        97  POPC      C11           -13.1282076090      -54.0348780007       19.9841449409  MEMB      97              0.0000000000
     11022        97  POPC      H11A          -12.0488100359      -53.8784460842       19.7726005563  MEMB      97              0.0000000000
     11023        97  POPC      H11B          -13.1725410107      -54.4638814692       21.0080158615  MEMB      97              0.0000000000
     11024        97  POPC      P             -13.7930848769      -51.8351828789       18.5991347387  MEMB      97              0.0000000000
     11025        97  POPC      O13           -12.4450874553      -51.2565472744       18.5311404545  MEMB      97              0.0000000000
     11026        97  POPC      O14           -14.9392533164      -50.9161755180       18.6299079752  MEMB      97              0.0000000000
     11027        97  POPC      O12           -13.8662778034      -52.8202998440       19.8674065844  MEMB      97              0.0000000000
     11028        97  POPC      O11           -14.0447175093      -52.8158995602       17.4182147879  MEMB      97              0.0000000000
     11029        97  POPC      C1            -14.4550795866      -52.4737565584       16.1013288241  MEMB      97              0.0000000000
     11030        97  POPC      HA            -13.7926235512      -51.6491236447       15.7615439593  MEMB      97              0.0000000000
     11031        97  POPC      HB            -15.5442061441      -52.2575131503       16.1382493349  MEMB      97              0.0000000000
     11032        97  POPC      C2            -14.4823000396      -53.7476038822       15.2284513897  MEMB      97              0.0000000000
     11033        97  POPC      HS            -14.9823097771      -54.5426634053       15.8219089158  MEMB      97              0.0000000000
     11034        97  POPC      O21           -13.1670172215      -54.1894410050       14.8296252207  MEMB      97              0.0000000000
     11035        97  POPC      C21           -12.8640391591      -55.3941980529       14.5805946145  MEMB      97              0.0000000000
     11036        97  POPC      O22           -13.6599074597      -56.3448068591       14.5996729277  MEMB      97              0.0000000000
     11037        97  POPC      C22           -11.4138018845      -55.4055518542       14.0537921226  MEMB      97              0.0000000000
     11038        97  POPC      H2R           -10.7225895155      -55.4244232741       14.9233842050  MEMB      97              0.0000000000
     11039        97  POPC      H2S           -11.0849876588      -54.4939368085       13.5105054754  MEMB      97              0.0000000000
     11040        97  POPC      C3            -15.3133989562      -53.4602770278       13.8510683205  MEMB      97              0.0000000000
     11041        97  POPC      HX            -16.3903054110      -53.2837198547       14.0594458579  MEMB      97              0.0000000000
     11042        97  POPC      HY            -15.2873051826      -54.4202795095       13.2924670127  MEMB      97              0.0000000000
     11043        97  POPC      O31           -14.6773935917      -52.4325990391       13.0722238204  MEMB      97              0.0000000000
     11044        97  POPC      C31           -13.7622614179      -52.6256998319       12.1329362057  MEMB      97              0.0000000000
     11045        97  POPC      O32           -13.2810194076      -53.7410480102       11.9661023515  MEMB      97              0.0000000000
     11046        97  POPC      C32           -13.4345900426      -51.3616974411       11.3105317388  MEMB      97              0.0000000000
     11047        97  POPC      H2X           -12.5694515922      -50.8468044950       11.7803629691  MEMB      97              0.0000000000
     11048        97  POPC      H2Y           -14.3408283929      -50.7190120714       11.3134557026  MEMB      97              0.0000000000
     11049        97  POPC      C23           -11.1426628913      -56.7048482415       13.2884715900  MEMB      97              0.0000000000
     11050        97  POPC      H3R           -11.9071188563      -57.0233481822       12.5478736485  MEMB      97              0.0000000000
     11051        97  POPC      H3S           -11.2749424516      -57.5084944555       14.0441012672  MEMB      97              0.0000000000
     11052        97  POPC      C24            -9.6975672372      -56.8488427512       12.7031655392  MEMB      97              0.0000000000
     11053        97  POPC      H4R            -9.6538097580      -57.9055841382       12.3630132798  MEMB      97              0.0000000000
     11054        97  POPC      H4S            -8.9907775553      -56.7723931450       13.5569365258  MEMB      97              0.0000000000
     11055        97  POPC      C25            -9.3454383831      -55.9289965829       11.5939293609  MEMB      97              0.0000000000
     11056        97  POPC      H5R            -8.2952779606      -56.0582053561       11.2551225005  MEMB      97              0.0000000000
     11057        97  POPC      H5S            -9.3165433863      -54.8834323557       11.9684707325  MEMB      97              0.0000000000
     11058        97  POPC      C26           -10.3448110626      -55.9503815123       10.4275777340  MEMB      97              0.0000000000
     11059        97  POPC      H6R           -11.1837326869      -55.2301745387       10.5363605588  MEMB      97              0.0000000000
     11060        97  POPC      H6S           -10.7287333755      -56.9882498516       10.3288179454  MEMB      97              0.0000000000
     11061        97  POPC      C27            -9.6657744167      -55.6485684716        9.0920235170  MEMB      97              0.0000000000
     11062        97  POPC      H7R            -9.1070224686      -56.5870633753        8.8886907517  MEMB      97              0.0000000000
     11063        97  POPC      H7S            -8.9592442671      -54.8247413006        9.3296052937  MEMB      97              0.0000000000
     11064        97  POPC      C28           -10.6921103616      -55.4756880044        7.9493371982  MEMB      97              0.0000000000
     11065        97  POPC      H8R           -11.1793766570      -54.4809293859        8.0350551985  MEMB      97              0.0000000000
     11066        97  POPC      H8S           -11.4318802467      -56.2974326665        8.0579515225  MEMB      97              0.0000000000
     11067        97  POPC      C29            -9.9139990291      -55.5994904799        6.6448048879  MEMB      97              0.0000000000
     11068        97  POPC      H91            -9.7465515013      -56.6411307151        6.3334421549  MEMB      97              0.0000000000
     11069        97  POPC      C210           -9.5668700805      -54.5807901388        5.8059399484  MEMB      97              0.0000000000
     11070        97  POPC      H101           -9.0595435992      -54.9277993792        4.8936874622  MEMB      97              0.0000000000
     11071        97  POPC      C211           -9.8719156382      -53.0840611136        6.0383099817  MEMB      97              0.0000000000
     11072        97  POPC      H11R           -9.0896655198      -52.3850066926        5.6726208469  MEMB      97              0.0000000000
     11073        97  POPC      H11S           -9.9073794630      -52.8038112787        7.1127968641  MEMB      97              0.0000000000
     11074        97  POPC      C212          -11.2705153230      -52.6361460507        5.5074453696  MEMB      97              0.0000000000
     11075        97  POPC      H12R          -11.3495784419      -51.5355182591        5.6366294991  MEMB      97              0.0000000000
     11076        97  POPC      H12S          -11.8961169717      -53.1770605110        6.2493049545  MEMB      97              0.0000000000
     11077        97  POPC      C213          -11.4847705640      -52.9877710102        4.0730962610  MEMB      97              0.0000000000
     11078        97  POPC      H13R          -12.5247920825      -52.7634287957        3.7531784748  MEMB      97              0.0000000000
     11079        97  POPC      H13S          -11.2108615375      -54.0572044614        3.9481678021  MEMB      97              0.0000000000
     11080        97  POPC      C214          -10.5859904103      -52.1465027829        3.0817454250  MEMB      97              0.0000000000
     11081        97  POPC      H14R           -9.4984273772      -52.2582718391        3.2793206971  MEMB      97              0.0000000000
     11082        97  POPC      H14S          -10.9273356022      -51.1074461417        3.2771058086  MEMB      97              0.0000000000
     11083        97  POPC      C215          -10.8796774566      -52.4241498899        1.6326835538  MEMB      97              0.0000000000
     11084        97  POPC      H15R          -11.9599325329      -52.6699672785        1.5493547977  MEMB      97              0.0000000000
     11085        97  POPC      H15S          -10.2950640519      -53.3189420645        1.3295415581  MEMB      97              0.0000000000
     11086        97  POPC      C216          -10.6196112225      -51.2283707215        0.6443139642  MEMB      97              0.0000000000
     11087        97  POPC      H16R           -9.5490880060      -50.9887519548        0.8200544558  MEMB      97              0.0000000000
     11088        97  POPC      H16S          -11.2832916074      -50.3677079970        0.8747664077  MEMB      97              0.0000000000
     11089        97  POPC      C217          -10.7908454116      -51.6125771515       -0.8385286643  MEMB      97              0.0000000000
     11090        97  POPC      H17R          -10.1558245896      -52.5044618210       -1.0272394733  MEMB      97              0.0000000000
     11091        97  POPC      H17S          -10.4573565148      -50.7736237576       -1.4860340073  MEMB      97              0.0000000000
     11092        97  POPC      C218          -12.1615501170      -52.2416424827       -1.2463576922  MEMB      97              0.0000000000
     11093        97  POPC      H18R          -12.3633616131      -53.1360579156       -0.6189700947  MEMB      97              0.0000000000
     11094        97  POPC      H18S          -12.2250812919      -52.4654996956       -2.3327152365  MEMB      97              0.0000000000
     11095        97  POPC      H18T          -12.8889340058      -51.4225322201       -1.0611778620  MEMB      97              0.0000000000
     11096        97  POPC      C33           -12.9944374607      -51.6564119858        9.8603326759  MEMB      97              0.0000000000
     11097        97  POPC      H3X           -13.8148758976      -52.2220247917        9.3691264227  MEMB      97              0.0000000000
     11098        97  POPC      H3Y           -12.0552716433      -52.2400832326        9.9681114896  MEMB      97              0.0000000000
     11099        97  POPC      C34           -12.5781968959      -50.3937374156        9.1403862419  MEMB      97              0.0000000000
     11100        97  POPC      H4X           -12.2496760572      -50.6026999083        8.0998434182  MEMB      97              0.0000000000
     11101        97  POPC      H4Y           -11.6899149396      -49.9338460250        9.6238903275  MEMB      97              0.0000000000
     11102        97  POPC      C35           -13.7182631002      -49.4036575080        8.9917184141  MEMB      97              0.0000000000
     11103        97  POPC      H5X           -13.5291224820      -48.6170691387        8.2302562622  MEMB      97              0.0000000000
     11104        97  POPC      H5Y           -13.7010897376      -48.8872857073        9.9752764231  MEMB      97              0.0000000000
     11105        97  POPC      C36           -15.1250677055      -49.9799363864        8.6547985777  MEMB      97              0.0000000000
     11106        97  POPC      H6X           -15.9797433730      -49.2743933290        8.5769571655  MEMB      97              0.0000000000
     11107        97  POPC      H6Y           -15.4974707288      -50.7700729057        9.3413276325  MEMB      97              0.0000000000
     11108        97  POPC      C37           -15.0704568674      -50.5130160838        7.2602602689  MEMB      97              0.0000000000
     11109        97  POPC      H7X           -14.1609110934      -51.1265355648        7.0852132519  MEMB      97              0.0000000000
     11110        97  POPC      H7Y           -14.9276948220      -49.5973743214        6.6474468537  MEMB      97              0.0000000000
     11111        97  POPC      C38           -16.2752607107      -51.3848978958        6.8259618101  MEMB      97              0.0000000000
     11112        97  POPC      H8X           -16.4611762410      -51.3203176909        5.7325330480  MEMB      97              0.0000000000
     11113        97  POPC      H8Y           -17.2533334319      -51.1049860699        7.2724419950  MEMB      97              0.0000000000
     11114        97  POPC      C39           -16.0823792218      -52.8972421807        7.0936577569  MEMB      97              0.0000000000
     11115        97  POPC      H9X           -16.3077223803      -53.0503286291        8.1707398394  MEMB      97              0.0000000000
     11116        97  POPC      H9Y           -15.0050287090      -53.1389357490        6.9702835500  MEMB      97              0.0000000000
     11117        97  POPC      C310          -16.8731461100      -53.9295948661        6.2680298578  MEMB      97              0.0000000000
     11118        97  POPC      H10X          -17.9685763508      -53.7747837920        6.3699462998  MEMB      97              0.0000000000
     11119        97  POPC      H10Y          -16.6379143637      -54.9758030571        6.5586081384  MEMB      97              0.0000000000
     11120        97  POPC      C311          -16.4873979913      -53.9720331720        4.7488725247  MEMB      97              0.0000000000
     11121        97  POPC      H11X          -15.4120673121      -53.7546293497        4.5736001014  MEMB      97              0.0000000000
     11122        97  POPC      H11Y          -16.9789617265      -53.0835437288        4.2980152564  MEMB      97              0.0000000000
     11123        97  POPC      C312          -16.8663337736      -55.2553808615        3.9848442293  MEMB      97              0.0000000000
     11124        97  POPC      H12X          -17.9596634879      -55.3832509157        3.8345102923  MEMB      97              0.0000000000
     11125        97  POPC      H12Y          -16.5149914013      -56.0916881571        4.6263032713  MEMB      97              0.0000000000
     11126        97  POPC      C313          -16.3135714849      -55.3466863715        2.5164684876  MEMB      97              0.0000000000
     11127        97  POPC      H13X          -16.6370498499      -54.4323131078        1.9746165038  MEMB      97              0.0000000000
     11128        97  POPC      H13Y          -16.7191301283      -56.2640816673        2.0387346913  MEMB      97              0.0000000000
     11129        97  POPC      C314          -14.8343576884      -55.4422150295        2.4251339061  MEMB      97              0.0000000000
     11130        97  POPC      H14X          -14.2718707857      -54.7122915977        3.0457305266  MEMB      97              0.0000000000
     11131        97  POPC      H14Y          -14.5944673510      -55.2444491507        1.3585212693  MEMB      97              0.0000000000
     11132        97  POPC      C315          -14.2646655384      -56.8092017938        2.6980207601  MEMB      97              0.0000000000
     11133        97  POPC      H15X          -14.3963438335      -57.5389252213        1.8706860187  MEMB      97              0.0000000000
     11134        97  POPC      H15Y          -14.9236997629      -57.1865237884        3.5089611685  MEMB      97              0.0000000000
     11135        97  POPC      C316          -12.8908044923      -56.9028942184        3.2112709072  MEMB      97              0.0000000000
     11136        97  POPC      H16X          -12.1432095667      -56.5639976477        2.4625580538  MEMB      97              0.0000000000
     11137        97  POPC      H16Y          -12.5996947059      -57.9679397524        3.3347782522  MEMB      97              0.0000000000
     11138        97  POPC      H16Z          -12.6486633410      -56.3908604858        4.1670479645  MEMB      97              0.0000000000
     11139        98  POPC      N              46.6615926189       22.9827104666       17.1683581429  MEMB      98              0.0000000000
     11140        98  POPC      C12            47.7081330278       23.6263955122       17.9886530548  MEMB      98              0.0000000000
     11141        98  POPC      H12A           47.6249874415       24.6856994454       17.7953604942  MEMB      98              0.0000000000
     11142        98  POPC      H12B           48.6371537967       23.2886805135       17.5536023323  MEMB      98              0.0000000000
     11143        98  POPC      C13            45.2988210474       23.4280622021       17.6440341583  MEMB      98              0.0000000000
     11144        98  POPC      H13A           44.5790733760       22.9041607303       17.0325682603  MEMB      98              0.0000000000
     11145        98  POPC      H13B           45.1465793288       23.0126650871       18.6292589178  MEMB      98              0.0000000000
     11146        98  POPC      H13C           45.1622318941       24.4993713938       17.6503578614  MEMB      98              0.0000000000
     11147        98  POPC      C14            46.8390166677       23.3932007511       15.7275231739  MEMB      98              0.0000000000
     11148        98  POPC      H14A           46.1530346773       22.7123149610       15.2456278382  MEMB      98              0.0000000000
     11149        98  POPC      H14B           46.6695627910       24.4265765735       15.4632889826  MEMB      98              0.0000000000
     11150        98  POPC      H14C           47.8437253575       23.1486060695       15.4158603139  MEMB      98              0.0000000000
     11151        98  POPC      C15            46.7271312163       21.4498831154       17.3263998400  MEMB      98              0.0000000000
     11152        98  POPC      H15A           47.7132561448       21.1667860695       16.9890370654  MEMB      98              0.0000000000
     11153        98  POPC      H15B           45.9013654337       21.0977558858       16.7259687922  MEMB      98              0.0000000000
     11154        98  POPC      H15C           46.5070937652       21.1658678831       18.3448884012  MEMB      98              0.0000000000
     11155        98  POPC      C11            47.7029231274       23.1453505278       19.4949757384  MEMB      98              0.0000000000
     11156        98  POPC      H11A           48.6004862310       23.6461597509       19.9167476217  MEMB      98              0.0000000000
     11157        98  POPC      H11B           47.8206688591       22.0498319762       19.6374395985  MEMB      98              0.0000000000
     11158        98  POPC      P              46.2215139987       24.8470741947       20.8149942368  MEMB      98              0.0000000000
     11159        98  POPC      O13            47.4395360392       25.2991786849       21.5298703263  MEMB      98              0.0000000000
     11160        98  POPC      O14            44.9549299392       24.7645436415       21.5735056866  MEMB      98              0.0000000000
     11161        98  POPC      O12            46.5542534255       23.4264440977       20.1946942176  MEMB      98              0.0000000000
     11162        98  POPC      O11            45.8407443357       25.6846216273       19.5369914597  MEMB      98              0.0000000000
     11163        98  POPC      C1             45.8624888978       27.0820550103       19.7843829431  MEMB      98              0.0000000000
     11164        98  POPC      HA             46.8286645334       27.5509076889       20.0689933119  MEMB      98              0.0000000000
     11165        98  POPC      HB             45.1143594275       27.3581594372       20.5579394212  MEMB      98              0.0000000000
     11166        98  POPC      C2             45.3398900941       27.8141400648       18.4964276200  MEMB      98              0.0000000000
     11167        98  POPC      HS             44.9143458405       28.7763775596       18.8532641156  MEMB      98              0.0000000000
     11168        98  POPC      O21            44.2116601361       27.0278804457       18.0349957357  MEMB      98              0.0000000000
     11169        98  POPC      C21            43.3932610728       27.6762715862       17.2052826385  MEMB      98              0.0000000000
     11170        98  POPC      O22            43.4004008238       28.7926307041       16.7271768577  MEMB      98              0.0000000000
     11171        98  POPC      C22            42.3298100171       26.7014903412       16.9458551012  MEMB      98              0.0000000000
     11172        98  POPC      H2R            41.4827202107       27.0373476223       17.5814330286  MEMB      98              0.0000000000
     11173        98  POPC      H2S            42.4348891767       25.6527816886       17.2972660144  MEMB      98              0.0000000000
     11174        98  POPC      C3             46.4470755628       27.8427559147       17.4354144774  MEMB      98              0.0000000000
     11175        98  POPC      HX             46.7217704394       26.7872009106       17.2240682581  MEMB      98              0.0000000000
     11176        98  POPC      HY             47.2885966058       28.3812459261       17.9214102061  MEMB      98              0.0000000000
     11177        98  POPC      O31            46.0971723475       28.4482775250       16.2643237228  MEMB      98              0.0000000000
     11178        98  POPC      C31            47.0687433579       28.6537996319       15.3751336895  MEMB      98              0.0000000000
     11179        98  POPC      O32            48.2105761725       28.3451944845       15.4972289202  MEMB      98              0.0000000000
     11180        98  POPC      C32            46.4243391985       29.4080073051       14.2046604430  MEMB      98              0.0000000000
     11181        98  POPC      H2X            46.9928458006       30.3620994682       14.2334626273  MEMB      98              0.0000000000
     11182        98  POPC      H2Y            45.3745634788       29.7595416903       14.2980170478  MEMB      98              0.0000000000
     11183        98  POPC      C23            41.7802423298       26.7812853677       15.5015426349  MEMB      98              0.0000000000
     11184        98  POPC      H3R            41.5659252003       27.8655434317       15.3885212456  MEMB      98              0.0000000000
     11185        98  POPC      H3S            40.8502002836       26.1796039189       15.4159700940  MEMB      98              0.0000000000
     11186        98  POPC      C24            42.7530157288       26.3588604247       14.3636070719  MEMB      98              0.0000000000
     11187        98  POPC      H4R            42.7457264826       25.2480584985       14.3439406626  MEMB      98              0.0000000000
     11188        98  POPC      H4S            43.7920678173       26.6792082937       14.5917928351  MEMB      98              0.0000000000
     11189        98  POPC      C25            42.2855021465       26.9893726988       13.0770609550  MEMB      98              0.0000000000
     11190        98  POPC      H5R            41.9758782413       28.0560478214       13.0514143149  MEMB      98              0.0000000000
     11191        98  POPC      H5S            41.4202598329       26.3861846483       12.7280039617  MEMB      98              0.0000000000
     11192        98  POPC      C26            43.2831742598       26.7111484529       11.9562765772  MEMB      98              0.0000000000
     11193        98  POPC      H6R            44.2588045574       27.0866854526       12.3323601530  MEMB      98              0.0000000000
     11194        98  POPC      H6S            42.8631519281       27.1852414207       11.0435126387  MEMB      98              0.0000000000
     11195        98  POPC      C27            43.3952995774       25.1774222500       11.5333105463  MEMB      98              0.0000000000
     11196        98  POPC      H7R            42.4641436831       25.0257147819       10.9465784913  MEMB      98              0.0000000000
     11197        98  POPC      H7S            43.3475870881       24.5241493610       12.4306846218  MEMB      98              0.0000000000
     11198        98  POPC      C28            44.5734647147       24.8514661945       10.6603844753  MEMB      98              0.0000000000
     11199        98  POPC      H8R            45.5226401579       25.1050997507       11.1790919138  MEMB      98              0.0000000000
     11200        98  POPC      H8S            44.4328861645       25.5077636571        9.7750420463  MEMB      98              0.0000000000
     11201        98  POPC      C29            44.6676576255       23.4178294947       10.2563624897  MEMB      98              0.0000000000
     11202        98  POPC      H91            45.1739606098       22.8960480702       11.0818335204  MEMB      98              0.0000000000
     11203        98  POPC      C210           44.1766266612       22.6927245926        9.2624441855  MEMB      98              0.0000000000
     11204        98  POPC      H101           44.4795493961       21.6361839682        9.2181766803  MEMB      98              0.0000000000
     11205        98  POPC      C211           43.3450700906       23.2107233168        8.1271676869  MEMB      98              0.0000000000
     11206        98  POPC      H11R           42.9053607837       24.1946575094        8.3970757432  MEMB      98              0.0000000000
     11207        98  POPC      H11S           42.5448058879       22.4545435384        7.9785383247  MEMB      98              0.0000000000
     11208        98  POPC      C212           44.2835473250       23.3522567527        6.8935820596  MEMB      98              0.0000000000
     11209        98  POPC      H12R           44.6753864565       22.3610116280        6.5801876403  MEMB      98              0.0000000000
     11210        98  POPC      H12S           45.1791378867       23.9541591685        7.1580671332  MEMB      98              0.0000000000
     11211        98  POPC      C213           43.4641545661       23.9008492957        5.7507545509  MEMB      98              0.0000000000
     11212        98  POPC      H13R           42.5805949787       23.2281445510        5.7174106138  MEMB      98              0.0000000000
     11213        98  POPC      H13S           44.0681543788       23.6638141913        4.8489119994  MEMB      98              0.0000000000
     11214        98  POPC      C214           43.0300068655       25.3939020936        5.8244861827  MEMB      98              0.0000000000
     11215        98  POPC      H14R           42.3889744384       25.6087912662        6.7060878378  MEMB      98              0.0000000000
     11216        98  POPC      H14S           42.3213425542       25.6214907480        4.9996718070  MEMB      98              0.0000000000
     11217        98  POPC      C215           44.2221166453       26.3503367689        5.7979842996  MEMB      98              0.0000000000
     11218        98  POPC      H15R           44.8123858226       26.0782853698        4.8969341149  MEMB      98              0.0000000000
     11219        98  POPC      H15S           44.8389367410       26.1820218581        6.7065677314  MEMB      98              0.0000000000
     11220        98  POPC      C216           43.6937354736       27.7329199772        5.4912888221  MEMB      98              0.0000000000
     11221        98  POPC      H16R           43.0422047264       27.9784176199        6.3570597234  MEMB      98              0.0000000000
     11222        98  POPC      H16S           42.9494792452       27.7051174626        4.6668915577  MEMB      98              0.0000000000
     11223        98  POPC      C217           44.8557175464       28.6567807509        4.9823876121  MEMB      98              0.0000000000
     11224        98  POPC      H17R           45.6784729225       28.6936035576        5.7280677041  MEMB      98              0.0000000000
     11225        98  POPC      H17S           44.4659273974       29.6916987598        4.8759460976  MEMB      98              0.0000000000
     11226        98  POPC      C218           45.4760067372       28.2148020268        3.6179706982  MEMB      98              0.0000000000
     11227        98  POPC      H18R           44.7867781094       28.1704182392        2.7477310960  MEMB      98              0.0000000000
     11228        98  POPC      H18S           46.1086332615       27.3187368625        3.7945265582  MEMB      98              0.0000000000
     11229        98  POPC      H18T           46.1945843909       29.0186724143        3.3500908106  MEMB      98              0.0000000000
     11230        98  POPC      C33            46.7948169211       28.5763304321       12.9246323226  MEMB      98              0.0000000000
     11231        98  POPC      H3X            46.3637577256       27.5595037413       13.0453493091  MEMB      98              0.0000000000
     11232        98  POPC      H3Y            47.9017093203       28.4824965738       12.9071540544  MEMB      98              0.0000000000
     11233        98  POPC      C34            46.2977266046       29.3658629635       11.7459009777  MEMB      98              0.0000000000
     11234        98  POPC      H4X            46.8001080636       30.3567600034       11.7383965153  MEMB      98              0.0000000000
     11235        98  POPC      H4Y            45.1976378387       29.4950554547       11.8321294529  MEMB      98              0.0000000000
     11236        98  POPC      C35            46.2487898357       28.5502225012       10.4449533754  MEMB      98              0.0000000000
     11237        98  POPC      H5X            45.6641791092       29.1324240535        9.7009149341  MEMB      98              0.0000000000
     11238        98  POPC      H5Y            45.7226350637       27.5720966177       10.4723773932  MEMB      98              0.0000000000
     11239        98  POPC      C36            47.6589058438       28.2352590348        9.9663809486  MEMB      98              0.0000000000
     11240        98  POPC      H6X            48.3805328850       28.0423169918       10.7887855369  MEMB      98              0.0000000000
     11241        98  POPC      H6Y            48.0599907803       29.1794120026        9.5397352082  MEMB      98              0.0000000000
     11242        98  POPC      C37            47.7437359613       27.0533976581        8.9025563356  MEMB      98              0.0000000000
     11243        98  POPC      H7X            47.1316622553       27.3919706765        8.0393910729  MEMB      98              0.0000000000
     11244        98  POPC      H7Y            47.4488171593       26.0946972332        9.3802980012  MEMB      98              0.0000000000
     11245        98  POPC      C38            49.0956371875       26.7812556035        8.2888935021  MEMB      98              0.0000000000
     11246        98  POPC      H8X            49.8847337060       26.8193970097        9.0700419932  MEMB      98              0.0000000000
     11247        98  POPC      H8Y            49.3180791213       27.6561052840        7.6412219547  MEMB      98              0.0000000000
     11248        98  POPC      C39            49.2568701207       25.5252507445        7.3437001518  MEMB      98              0.0000000000
     11249        98  POPC      H9X            49.2945438858       24.5983275711        7.9550231590  MEMB      98              0.0000000000
     11250        98  POPC      H9Y            50.2243276388       25.5912561618        6.8014922739  MEMB      98              0.0000000000
     11251        98  POPC      C310           48.1283179237       25.2992829780        6.2781166846  MEMB      98              0.0000000000
     11252        98  POPC      H10X           47.5048037922       26.1789055251        6.0101333485  MEMB      98              0.0000000000
     11253        98  POPC      H10Y           47.4305215434       24.5271910068        6.6670582686  MEMB      98              0.0000000000
     11254        98  POPC      C311           48.8055581135       24.8329140767        4.9466593515  MEMB      98              0.0000000000
     11255        98  POPC      H11X           49.4770310580       23.9653458794        5.1220744657  MEMB      98              0.0000000000
     11256        98  POPC      H11Y           49.4565255415       25.5968284065        4.4702167844  MEMB      98              0.0000000000
     11257        98  POPC      C312           47.8162096311       24.4649528681        3.7961576977  MEMB      98              0.0000000000
     11258        98  POPC      H12X           47.0919123285       25.2663681100        3.5364511098  MEMB      98              0.0000000000
     11259        98  POPC      H12Y           47.2241130184       23.5733000360        4.0939808593  MEMB      98              0.0000000000
     11260        98  POPC      C313           48.5834031739       24.0139889310        2.5022894685  MEMB      98              0.0000000000
     11261        98  POPC      H13X           49.0632239470       23.0542435353        2.7903551598  MEMB      98              0.0000000000
     11262        98  POPC      H13Y           49.2494622314       24.7850607699        2.0594196950  MEMB      98              0.0000000000
     11263        98  POPC      C314           47.5094898211       23.4950055256        1.4548210671  MEMB      98              0.0000000000
     11264        98  POPC      H14X           46.8980328828       22.6649994230        1.8689843952  MEMB      98              0.0000000000
     11265        98  POPC      H14Y           48.0098949729       23.1470646364        0.5259224179  MEMB      98              0.0000000000
     11266        98  POPC      C315           46.4928549744       24.5342245357        0.9567650566  MEMB      98              0.0000000000
     11267        98  POPC      H15X           45.8565463800       24.6708124798        1.8571971750  MEMB      98              0.0000000000
     11268        98  POPC      H15Y           45.8094205643       24.0512356117        0.2260389056  MEMB      98              0.0000000000
     11269        98  POPC      C316           47.1442838681       25.8601135445        0.4913015740  MEMB      98              0.0000000000
     11270        98  POPC      H16X           47.6957215231       25.6334960831       -0.4461854382  MEMB      98              0.0000000000
     11271        98  POPC      H16Y           47.8327527468       26.2810370282        1.2549476962  MEMB      98              0.0000000000
     11272        98  POPC      H16Z           46.3646811373       26.5743179841        0.1500516527  MEMB      98              0.0000000000
     11273        99  POPC      N              13.7470542369       53.5809612075       17.7383392854  MEMB      99              0.0000000000
     11274        99  POPC      C12            14.8000102107       54.5998005143       17.9440458354  MEMB      99              0.0000000000
     11275        99  POPC      H12A           14.4065966956       55.5616254597       17.6499055183  MEMB      99              0.0000000000
     11276        99  POPC      H12B           15.6717280677       54.3896195176       17.3421058748  MEMB      99              0.0000000000
     11277        99  POPC      C13            12.7885793495       53.3891274870       18.8696536041  MEMB      99              0.0000000000
     11278        99  POPC      H13A           12.0844879112       52.5929347167       18.6779972320  MEMB      99              0.0000000000
     11279        99  POPC      H13B           13.2149710132       53.1677621462       19.8369113500  MEMB      99              0.0000000000
     11280        99  POPC      H13C           12.1730035178       54.2650267457       19.0120154714  MEMB      99              0.0000000000
     11281        99  POPC      C14            13.0230638530       54.0148394013       16.4514584775  MEMB      99              0.0000000000
     11282        99  POPC      H14A           12.2507727714       53.2956041936       16.2219644085  MEMB      99              0.0000000000
     11283        99  POPC      H14B           12.5098614736       54.9647378289       16.4782254903  MEMB      99              0.0000000000
     11284        99  POPC      H14C           13.6168794260       54.1755118000       15.5637833017  MEMB      99              0.0000000000
     11285        99  POPC      C15            14.3893960979       52.2769046779       17.5096397258  MEMB      99              0.0000000000
     11286        99  POPC      H15A           13.7014498479       51.4771299078       17.2783600827  MEMB      99              0.0000000000
     11287        99  POPC      H15B           14.7349911767       51.9689617042       18.4854138649  MEMB      99              0.0000000000
     11288        99  POPC      H15C           15.1361268418       52.4097352749       16.7407774626  MEMB      99              0.0000000000
     11289        99  POPC      C11            15.2649728799       54.8821541794       19.3563779784  MEMB      99              0.0000000000
     11290        99  POPC      H11A           14.5660413182       55.5374614370       19.9188617893  MEMB      99              0.0000000000
     11291        99  POPC      H11B           16.0663970796       55.6508261568       19.3219750375  MEMB      99              0.0000000000
     11292        99  POPC      P              17.2038229600       53.1892914979       20.2789110359  MEMB      99              0.0000000000
     11293        99  POPC      O13            17.2371430406       51.6865629692       20.2381709256  MEMB      99              0.0000000000
     11294        99  POPC      O14            17.6399158986       53.7809785051       21.5358825352  MEMB      99              0.0000000000
     11295        99  POPC      O12            15.7353260034       53.6914417784       20.0069469635  MEMB      99              0.0000000000
     11296        99  POPC      O11            17.9325263559       53.8882901475       19.0705736412  MEMB      99              0.0000000000
     11297        99  POPC      C1             18.1816123272       53.1527311915       17.9028779274  MEMB      99              0.0000000000
     11298        99  POPC      HA             17.1998601745       52.9586804494       17.4203552447  MEMB      99              0.0000000000
     11299        99  POPC      HB             18.6331014505       52.1475144270       18.0443613367  MEMB      99              0.0000000000
     11300        99  POPC      C2             18.9871872242       54.0316649372       16.8937319857  MEMB      99              0.0000000000
     11301        99  POPC      HS             19.9939898215       54.0465515855       17.3632512937  MEMB      99              0.0000000000
     11302        99  POPC      O21            18.3041322788       55.3359486960       16.8456004624  MEMB      99              0.0000000000
     11303        99  POPC      C21            18.9067355211       56.2172400638       16.0769755257  MEMB      99              0.0000000000
     11304        99  POPC      O22            19.9469020569       56.1238070311       15.4927352350  MEMB      99              0.0000000000
     11305        99  POPC      C22            17.9852571225       57.4178942467       16.0579849152  MEMB      99              0.0000000000
     11306        99  POPC      H2R            18.5579795031       58.2346518612       15.5688867767  MEMB      99              0.0000000000
     11307        99  POPC      H2S            17.7986046512       57.6172461363       17.1348975173  MEMB      99              0.0000000000
     11308        99  POPC      C3             19.0411845018       53.3416948757       15.4552634216  MEMB      99              0.0000000000
     11309        99  POPC      HX             19.5925126282       52.3916557394       15.6219484056  MEMB      99              0.0000000000
     11310        99  POPC      HY             19.5145352579       53.9885532338       14.6859558245  MEMB      99              0.0000000000
     11311        99  POPC      O31            17.6431006974       53.1539413544       15.0906034060  MEMB      99              0.0000000000
     11312        99  POPC      C31            17.1967858140       51.9700281963       14.7516747546  MEMB      99              0.0000000000
     11313        99  POPC      O32            17.7785737074       50.9151739673       14.8500146341  MEMB      99              0.0000000000
     11314        99  POPC      C32            15.7810147136       52.1098498994       14.2586762179  MEMB      99              0.0000000000
     11315        99  POPC      H2X            15.5146305743       53.1610828935       14.0172847215  MEMB      99              0.0000000000
     11316        99  POPC      H2Y            15.1155677202       51.8246504397       15.1013873796  MEMB      99              0.0000000000
     11317        99  POPC      C23            16.6974322463       57.1823792026       15.2714875294  MEMB      99              0.0000000000
     11318        99  POPC      H3R            16.0526684239       58.0718927222       15.4369152137  MEMB      99              0.0000000000
     11319        99  POPC      H3S            16.1860623466       56.3137966434       15.7388050782  MEMB      99              0.0000000000
     11320        99  POPC      C24            16.8474485647       56.9521371993       13.8175142452  MEMB      99              0.0000000000
     11321        99  POPC      H4R            17.6027524863       56.1411850316       13.7388143267  MEMB      99              0.0000000000
     11322        99  POPC      H4S            17.2539585418       57.7574464448       13.1690173828  MEMB      99              0.0000000000
     11323        99  POPC      C25            15.5049854588       56.5068919710       13.0548208349  MEMB      99              0.0000000000
     11324        99  POPC      H5R            14.6886889814       57.2575924187       13.1213770985  MEMB      99              0.0000000000
     11325        99  POPC      H5S            15.2177499910       55.5864202522       13.6066802495  MEMB      99              0.0000000000
     11326        99  POPC      C26            15.7573796314       56.1495077984       11.6043949742  MEMB      99              0.0000000000
     11327        99  POPC      H6R            16.6636335938       55.5343421372       11.4183951946  MEMB      99              0.0000000000
     11328        99  POPC      H6S            15.9449594676       57.1019936816       11.0641115537  MEMB      99              0.0000000000
     11329        99  POPC      C27            14.6102571218       55.4458429521       10.7642656098  MEMB      99              0.0000000000
     11330        99  POPC      H7R            13.8928834829       56.2939621565       10.7840086236  MEMB      99              0.0000000000
     11331        99  POPC      H7S            14.1693756584       54.6078778592       11.3454357503  MEMB      99              0.0000000000
     11332        99  POPC      C28            15.0772322454       55.0158431267        9.2973284500  MEMB      99              0.0000000000
     11333        99  POPC      H8R            14.4482156139       54.1941534584        8.8929949719  MEMB      99              0.0000000000
     11334        99  POPC      H8S            16.1028618404       54.5907103942        9.3381575306  MEMB      99              0.0000000000
     11335        99  POPC      C29            15.1497261122       56.1755213844        8.3807800868  MEMB      99              0.0000000000
     11336        99  POPC      H91            16.0359826942       56.8211333443        8.4687259561  MEMB      99              0.0000000000
     11337        99  POPC      C210           14.1574768771       56.6113487556        7.5131515685  MEMB      99              0.0000000000
     11338        99  POPC      H101           14.2509080627       57.4766724304        6.8404805623  MEMB      99              0.0000000000
     11339        99  POPC      C211           12.8035884587       55.9198013762        7.4290216413  MEMB      99              0.0000000000
     11340        99  POPC      H11R           12.0683857068       56.7463682001        7.5319057236  MEMB      99              0.0000000000
     11341        99  POPC      H11S           12.4846247335       55.1955466510        8.2087903629  MEMB      99              0.0000000000
     11342        99  POPC      C212           12.6301076972       55.3005922334        6.0774005085  MEMB      99              0.0000000000
     11343        99  POPC      H12R           13.0790416016       56.0295154716        5.3692686739  MEMB      99              0.0000000000
     11344        99  POPC      H12S           11.5880116766       55.1726502578        5.7140993562  MEMB      99              0.0000000000
     11345        99  POPC      C213           13.1952702589       53.8621283178        5.9115424236  MEMB      99              0.0000000000
     11346        99  POPC      H13R           12.9070061774       53.3117798629        6.8325970590  MEMB      99              0.0000000000
     11347        99  POPC      H13S           14.3015487560       53.9402286161        5.9776435839  MEMB      99              0.0000000000
     11348        99  POPC      C214           12.6895107624       53.0172397101        4.6771703955  MEMB      99              0.0000000000
     11349        99  POPC      H14R           13.1895535567       53.6115523012        3.8827708315  MEMB      99              0.0000000000
     11350        99  POPC      H14S           11.6056029790       53.1094465503        4.4514209614  MEMB      99              0.0000000000
     11351        99  POPC      C215           13.1714113604       51.6054991096        4.7350067436  MEMB      99              0.0000000000
     11352        99  POPC      H15R           12.4188401681       51.0540851829        5.3382487257  MEMB      99              0.0000000000
     11353        99  POPC      H15S           14.1294823734       51.5916333677        5.2973488555  MEMB      99              0.0000000000
     11354        99  POPC      C216           13.4893933668       50.8700597767        3.4266293427  MEMB      99              0.0000000000
     11355        99  POPC      H16R           12.7204083384       50.9704384416        2.6310746661  MEMB      99              0.0000000000
     11356        99  POPC      H16S           13.6389390184       49.7743592952        3.5333867594  MEMB      99              0.0000000000
     11357        99  POPC      C217           14.7736141219       51.3019810208        2.7976181451  MEMB      99              0.0000000000
     11358        99  POPC      H17R           15.0866330411       52.2724227757        3.2387330207  MEMB      99              0.0000000000
     11359        99  POPC      H17S           14.5613959368       51.5608823437        1.7382522212  MEMB      99              0.0000000000
     11360        99  POPC      C218           15.8976190196       50.1861789903        2.5734020482  MEMB      99              0.0000000000
     11361        99  POPC      H18R           16.2683519335       49.8076721508        3.5499319455  MEMB      99              0.0000000000
     11362        99  POPC      H18S           16.6567944314       50.6278257503        1.8930193907  MEMB      99              0.0000000000
     11363        99  POPC      H18T           15.3801238216       49.2972390355        2.1535145199  MEMB      99              0.0000000000
     11364        99  POPC      C33            15.5552158577       51.1267659819       13.0617709045  MEMB      99              0.0000000000
     11365        99  POPC      H3X            14.4629949378       50.9291885038       13.0134208309  MEMB      99              0.0000000000
     11366        99  POPC      H3Y            16.0559592155       50.1499902038       13.2334870822  MEMB      99              0.0000000000
     11367        99  POPC      C34            15.8406643235       51.8458665452       11.7768228774  MEMB      99              0.0000000000
     11368        99  POPC      H4X            16.8321119606       52.2968504908       11.9958340301  MEMB      99              0.0000000000
     11369        99  POPC      H4Y            15.1433816995       52.7105683531       11.7566068711  MEMB      99              0.0000000000
     11370        99  POPC      C35            15.8202313737       50.9211831519       10.4337647051  MEMB      99              0.0000000000
     11371        99  POPC      H5X            14.7780742973       50.7674021327       10.0808040479  MEMB      99              0.0000000000
     11372        99  POPC      H5Y            16.3113590128       49.9733994306       10.7416934123  MEMB      99              0.0000000000
     11373        99  POPC      C36            16.7078803264       51.5857837678        9.4021590796  MEMB      99              0.0000000000
     11374        99  POPC      H6X            17.6858349355       51.7101292638        9.9144712779  MEMB      99              0.0000000000
     11375        99  POPC      H6Y            16.3311586756       52.5918850561        9.1190300652  MEMB      99              0.0000000000
     11376        99  POPC      C37            16.8364217435       50.7009959084        8.1665129627  MEMB      99              0.0000000000
     11377        99  POPC      H7X            16.0204950733       51.0373752062        7.4916546673  MEMB      99              0.0000000000
     11378        99  POPC      H7Y            16.5961514835       49.6579292007        8.4641756396  MEMB      99              0.0000000000
     11379        99  POPC      C38            18.1667416467       50.7615898649        7.4023080194  MEMB      99              0.0000000000
     11380        99  POPC      H8X            18.0497427760       50.3353683254        6.3830107065  MEMB      99              0.0000000000
     11381        99  POPC      H8Y            18.8932771527       50.1805384271        8.0096355414  MEMB      99              0.0000000000
     11382        99  POPC      C39            18.8311606262       52.1718200839        7.2861324231  MEMB      99              0.0000000000
     11383        99  POPC      H9X            19.8550871534       52.0718449857        6.8667278373  MEMB      99              0.0000000000
     11384        99  POPC      H9Y            18.9187950423       52.4767374687        8.3508700746  MEMB      99              0.0000000000
     11385        99  POPC      C310           18.0273836752       53.2078315493        6.4562834196  MEMB      99              0.0000000000
     11386        99  POPC      H10X           17.0168024350       53.3394349213        6.8986948705  MEMB      99              0.0000000000
     11387        99  POPC      H10Y           17.9335199340       52.9146252269        5.3887911725  MEMB      99              0.0000000000
     11388        99  POPC      C311           18.7153712091       54.5610143445        6.6100564460  MEMB      99              0.0000000000
     11389        99  POPC      H11X           19.8136874883       54.4951572827        6.4561570372  MEMB      99              0.0000000000
     11390        99  POPC      H11Y           18.5510600091       54.8756472882        7.6628292422  MEMB      99              0.0000000000
     11391        99  POPC      C312           18.1399867338       55.6769578611        5.6213110620  MEMB      99              0.0000000000
     11392        99  POPC      H12X           18.8115668396       56.5427388726        5.8049522410  MEMB      99              0.0000000000
     11393        99  POPC      H12Y           17.1277953800       55.9256179246        6.0059642609  MEMB      99              0.0000000000
     11394        99  POPC      C313           18.0749215141       55.3937751274        4.1026471338  MEMB      99              0.0000000000
     11395        99  POPC      H13X           17.7658000312       54.3584502423        3.8440601882  MEMB      99              0.0000000000
     11396        99  POPC      H13Y           19.0323058268       55.5984412057        3.5774340486  MEMB      99              0.0000000000
     11397        99  POPC      C314           16.9442464466       56.2725063809        3.4072051256  MEMB      99              0.0000000000
     11398        99  POPC      H14X           17.3290685035       57.2239380244        3.8326587318  MEMB      99              0.0000000000
     11399        99  POPC      H14Y           15.9478923333       55.8730576332        3.6936319910  MEMB      99              0.0000000000
     11400        99  POPC      C315           16.9391974394       56.3566334329        1.9157618636  MEMB      99              0.0000000000
     11401        99  POPC      H15X           16.3880917812       55.5359115206        1.4087924314  MEMB      99              0.0000000000
     11402        99  POPC      H15Y           18.0254778520       56.3792241563        1.6838018645  MEMB      99              0.0000000000
     11403        99  POPC      C316           16.3043753355       57.6586353396        1.3540635224  MEMB      99              0.0000000000
     11404        99  POPC      H16X           16.2127610616       57.6147207912        0.2477169826  MEMB      99              0.0000000000
     11405        99  POPC      H16Y           16.8225191389       58.6193417255        1.5611658535  MEMB      99              0.0000000000
     11406        99  POPC      H16Z           15.2452508911       57.6971212447        1.6873727325  MEMB      99              0.0000000000
     11407       100  POPC      N              57.4982036526        6.5043406683       19.3431567709  MEMB      100             0.0000000000
     11408       100  POPC      C12            57.8346877408        5.9143459586       17.9767788196  MEMB      100             0.0000000000
     11409       100  POPC      H12A           58.7881452898        6.3971731758       17.8212259788  MEMB      100             0.0000000000
     11410       100  POPC      H12B           57.0933402871        6.2784325897       17.2809018425  MEMB      100             0.0000000000
     11411       100  POPC      C13            57.1591792838        8.0043768279       19.1313587915  MEMB      100             0.0000000000
     11412       100  POPC      H13A           56.5118113760        8.0730422625       18.2696164869  MEMB      100             0.0000000000
     11413       100  POPC      H13B           56.5990587655        8.3404529420       19.9914274063  MEMB      100             0.0000000000
     11414       100  POPC      H13C           58.0419656494        8.6034689438       18.9634991916  MEMB      100             0.0000000000
     11415       100  POPC      C14            56.2450842235        5.8603261066       19.9255709445  MEMB      100             0.0000000000
     11416       100  POPC      H14A           56.5556954546        4.8271270323       19.9747699457  MEMB      100             0.0000000000
     11417       100  POPC      H14B           56.0291312386        6.2487911273       20.9098773930  MEMB      100             0.0000000000
     11418       100  POPC      H14C           55.3728892099        5.9647274602       19.2972588592  MEMB      100             0.0000000000
     11419       100  POPC      C15            58.5449748301        6.3519881433       20.4263908334  MEMB      100             0.0000000000
     11420       100  POPC      H15A           59.4572823080        6.8506785883       20.1341532686  MEMB      100             0.0000000000
     11421       100  POPC      H15B           58.8077224026        5.3140140063       20.2850635220  MEMB      100             0.0000000000
     11422       100  POPC      H15C           58.1999751160        6.5813259155       21.4237772814  MEMB      100             0.0000000000
     11423       100  POPC      C11            58.1237978052        4.3925746455       17.6886341281  MEMB      100             0.0000000000
     11424       100  POPC      H11A           59.1473160140        4.0703277291       17.9765375377  MEMB      100             0.0000000000
     11425       100  POPC      H11B           58.0383726769        4.2263721094       16.5934628932  MEMB      100             0.0000000000
     11426       100  POPC      P              57.4010585497        2.2833221470       18.9853811273  MEMB      100             0.0000000000
     11427       100  POPC      O13            56.2276454368        1.7846800046       19.8435550193  MEMB      100             0.0000000000
     11428       100  POPC      O14            58.7766012370        2.3198813425       19.6005998769  MEMB      100             0.0000000000
     11429       100  POPC      O12            57.1375704945        3.5879235002       18.3535100704  MEMB      100             0.0000000000
     11430       100  POPC      O11            57.6291615002        1.2986492652       17.7250636139  MEMB      100             0.0000000000
     11431       100  POPC      C1             56.7564962497        1.2174669988       16.6069465170  MEMB      100             0.0000000000
     11432       100  POPC      HA             56.1470242988        2.1426671461       16.5240634753  MEMB      100             0.0000000000
     11433       100  POPC      HB             56.0525037138        0.3746089432       16.7751901545  MEMB      100             0.0000000000
     11434       100  POPC      C2             57.5628920743        1.0238396013       15.2901259756  MEMB      100             0.0000000000
     11435       100  POPC      HS             58.3732739125        0.2683043935       15.3723996995  MEMB      100             0.0000000000
     11436       100  POPC      O21            58.0598457847        2.2976762251       14.8050847606  MEMB      100             0.0000000000
     11437       100  POPC      C21            58.8498248527        2.3504113842       13.8414948594  MEMB      100             0.0000000000
     11438       100  POPC      O22            59.2051049840        1.4899118993       13.0436737694  MEMB      100             0.0000000000
     11439       100  POPC      C22            59.4223639278        3.8235209968       13.8652130396  MEMB      100             0.0000000000
     11440       100  POPC      H2R            59.5996364277        4.0083491578       14.9462926918  MEMB      100             0.0000000000
     11441       100  POPC      H2S            58.6670541608        4.6140175039       13.6678720259  MEMB      100             0.0000000000
     11442       100  POPC      C3             56.6384815215        0.4012572463       14.2373337791  MEMB      100             0.0000000000
     11443       100  POPC      HX             56.2360499557       -0.5556231562       14.6332500793  MEMB      100             0.0000000000
     11444       100  POPC      HY             57.1374789140        0.2075293888       13.2637874854  MEMB      100             0.0000000000
     11445       100  POPC      O31            55.5875149868        1.3510959353       14.0336462011  MEMB      100             0.0000000000
     11446       100  POPC      C31            55.4760173371        1.9357443772       12.8973546787  MEMB      100             0.0000000000
     11447       100  POPC      O32            56.0581113952        1.6031218534       11.8438220538  MEMB      100             0.0000000000
     11448       100  POPC      C32            54.5646315528        3.1541816913       12.9184432763  MEMB      100             0.0000000000
     11449       100  POPC      H2X            54.9302623383        3.6931974394       13.8184971105  MEMB      100             0.0000000000
     11450       100  POPC      H2Y            53.5329048654        2.8611768392       13.2082877499  MEMB      100             0.0000000000
     11451       100  POPC      C23            60.6349316481        4.0008101984       12.9678063116  MEMB      100             0.0000000000
     11452       100  POPC      H3R            60.4650852067        3.4735826000       12.0047363026  MEMB      100             0.0000000000
     11453       100  POPC      H3S            61.4738167723        3.5206629336       13.5155760382  MEMB      100             0.0000000000
     11454       100  POPC      C24            60.8196009927        5.5029433383       12.5967334186  MEMB      100             0.0000000000
     11455       100  POPC      H4R            60.5909126039        6.1726405352       13.4531962890  MEMB      100             0.0000000000
     11456       100  POPC      H4S            60.0780393566        5.8104661843       11.8287247813  MEMB      100             0.0000000000
     11457       100  POPC      C25            62.2060822897        5.8923081494       12.1234480156  MEMB      100             0.0000000000
     11458       100  POPC      H5R            62.9692726541        5.6645009666       12.8980224426  MEMB      100             0.0000000000
     11459       100  POPC      H5S            62.2770586872        6.9756910889       11.8877260016  MEMB      100             0.0000000000
     11460       100  POPC      C26            62.7711415941        5.1874678744       10.7311022093  MEMB      100             0.0000000000
     11461       100  POPC      H6R            62.7409930326        4.0796731798       10.8098593071  MEMB      100             0.0000000000
     11462       100  POPC      H6S            63.8139897772        5.4779762406       10.4813138307  MEMB      100             0.0000000000
     11463       100  POPC      C27            61.8510745014        5.4793292288        9.4589468427  MEMB      100             0.0000000000
     11464       100  POPC      H7R            62.1944964808        6.4315527111        9.0010681088  MEMB      100             0.0000000000
     11465       100  POPC      H7S            60.8217637007        5.6200800045        9.8526843675  MEMB      100             0.0000000000
     11466       100  POPC      C28            61.8820967886        4.3839909432        8.3845933141  MEMB      100             0.0000000000
     11467       100  POPC      H8R            61.1249046759        4.6714439670        7.6240984499  MEMB      100             0.0000000000
     11468       100  POPC      H8S            61.5395150887        3.4272311112        8.8335584631  MEMB      100             0.0000000000
     11469       100  POPC      C29            63.2781121133        4.4528307123        7.6906156221  MEMB      100             0.0000000000
     11470       100  POPC      H91            64.1044893058        4.9731666832        8.1969272063  MEMB      100             0.0000000000
     11471       100  POPC      C210           63.4145470922        4.1688143488        6.3632717920  MEMB      100             0.0000000000
     11472       100  POPC      H101           64.4544049525        4.2087179762        6.0067559705  MEMB      100             0.0000000000
     11473       100  POPC      C211           62.3603086937        3.7085651516        5.3629191504  MEMB      100             0.0000000000
     11474       100  POPC      H11R           61.3378649946        3.4740650030        5.7288973222  MEMB      100             0.0000000000
     11475       100  POPC      H11S           62.7256964026        2.8421383838        4.7712119649  MEMB      100             0.0000000000
     11476       100  POPC      C212           62.1372551898        4.8263979500        4.2776464242  MEMB      100             0.0000000000
     11477       100  POPC      H12R           63.0965511687        5.0657065760        3.7708886863  MEMB      100             0.0000000000
     11478       100  POPC      H12S           61.9193956156        5.7815421072        4.8016291140  MEMB      100             0.0000000000
     11479       100  POPC      C213           61.0125528618        4.5420567023        3.2479357468  MEMB      100             0.0000000000
     11480       100  POPC      H13R           60.6932367740        5.4870048451        2.7586181532  MEMB      100             0.0000000000
     11481       100  POPC      H13S           60.1232766476        4.2415179540        3.8422301595  MEMB      100             0.0000000000
     11482       100  POPC      C214           61.4411036426        3.5189320921        2.1515901811  MEMB      100             0.0000000000
     11483       100  POPC      H14R           61.4854697499        2.5170432449        2.6296822106  MEMB      100             0.0000000000
     11484       100  POPC      H14S           62.4044632621        3.8546027019        1.7116077500  MEMB      100             0.0000000000
     11485       100  POPC      C215           60.2980206242        3.3850422271        1.0357481535  MEMB      100             0.0000000000
     11486       100  POPC      H15R           59.3706332254        3.0253725884        1.5306325967  MEMB      100             0.0000000000
     11487       100  POPC      H15S           60.6031791005        2.5322153140        0.3924083983  MEMB      100             0.0000000000
     11488       100  POPC      C216           60.2304323617        4.5903873637        0.1423503264  MEMB      100             0.0000000000
     11489       100  POPC      H16R           61.2576792883        4.8497659776       -0.1920257905  MEMB      100             0.0000000000
     11490       100  POPC      H16S           59.8106579000        5.5384662887        0.5414203766  MEMB      100             0.0000000000
     11491       100  POPC      C217           59.6120665802        4.2564493239       -1.2059806384  MEMB      100             0.0000000000
     11492       100  POPC      H17R           60.2387823342        3.5519393337       -1.7935317007  MEMB      100             0.0000000000
     11493       100  POPC      H17S           59.6380263981        5.1884192289       -1.8101996757  MEMB      100             0.0000000000
     11494       100  POPC      C218           58.1517708986        3.8489580268       -1.2049523462  MEMB      100             0.0000000000
     11495       100  POPC      H18R           57.9803740036        3.0227584533       -0.4822221190  MEMB      100             0.0000000000
     11496       100  POPC      H18S           57.6957403187        3.4625848829       -2.1414724460  MEMB      100             0.0000000000
     11497       100  POPC      H18T           57.5115250971        4.6640755238       -0.8049650872  MEMB      100             0.0000000000
     11498       100  POPC      C33            54.7071875085        3.9816165499       11.6514036177  MEMB      100             0.0000000000
     11499       100  POPC      H3X            53.8726270534        4.7061759059       11.5380740880  MEMB      100             0.0000000000
     11500       100  POPC      H3Y            54.6635767639        3.3696251363       10.7251825353  MEMB      100             0.0000000000
     11501       100  POPC      C34            56.0157134287        4.7268988746       11.7037076784  MEMB      100             0.0000000000
     11502       100  POPC      H4X            56.8366687228        3.9866858705       11.5921808444  MEMB      100             0.0000000000
     11503       100  POPC      H4Y            56.1718700626        5.3577059983       12.6048281505  MEMB      100             0.0000000000
     11504       100  POPC      C35            56.1585260565        5.6036250952       10.4532094954  MEMB      100             0.0000000000
     11505       100  POPC      H5X            55.2712682525        6.2535167551       10.6104841159  MEMB      100             0.0000000000
     11506       100  POPC      H5Y            55.9623240124        4.8555990173        9.6555362149  MEMB      100             0.0000000000
     11507       100  POPC      C36            57.4019249186        6.3498797587       10.1655187361  MEMB      100             0.0000000000
     11508       100  POPC      H6X            58.2987332502        5.6957733824       10.2124275384  MEMB      100             0.0000000000
     11509       100  POPC      H6Y            57.4630701297        7.1106068189       10.9729081585  MEMB      100             0.0000000000
     11510       100  POPC      C37            57.5033204479        7.1350347299        8.8167954590  MEMB      100             0.0000000000
     11511       100  POPC      H7X            58.5562300760        7.4854143285        8.8709848013  MEMB      100             0.0000000000
     11512       100  POPC      H7Y            56.8996902833        8.0527300839        8.9834912944  MEMB      100             0.0000000000
     11513       100  POPC      C38            57.1496436523        6.3698935552        7.5724821025  MEMB      100             0.0000000000
     11514       100  POPC      H8X            57.2051972908        7.1305125956        6.7645872358  MEMB      100             0.0000000000
     11515       100  POPC      H8Y            56.1058477756        5.9904206900        7.6009692482  MEMB      100             0.0000000000
     11516       100  POPC      C39            58.1406018244        5.2814458623        7.1648518619  MEMB      100             0.0000000000
     11517       100  POPC      H9X            58.5644591269        4.7469733013        8.0417812020  MEMB      100             0.0000000000
     11518       100  POPC      H9Y            58.9509564930        5.8980942909        6.7205646269  MEMB      100             0.0000000000
     11519       100  POPC      C310           57.8271294997        4.1285058550        6.1874644999  MEMB      100             0.0000000000
     11520       100  POPC      H10X           58.7590041212        3.5379842637        6.3186700380  MEMB      100             0.0000000000
     11521       100  POPC      H10Y           57.7127129180        4.4384377285        5.1267238114  MEMB      100             0.0000000000
     11522       100  POPC      C311           56.5229185716        3.2956826505        6.4837647935  MEMB      100             0.0000000000
     11523       100  POPC      H11X           55.6462441865        3.9527336849        6.2992468280  MEMB      100             0.0000000000
     11524       100  POPC      H11Y           56.5258498339        3.1030775423        7.5779380802  MEMB      100             0.0000000000
     11525       100  POPC      C312           56.4087321366        1.9429346204        5.7975296365  MEMB      100             0.0000000000
     11526       100  POPC      H12X           55.4187473568        1.5014669549        6.0411617570  MEMB      100             0.0000000000
     11527       100  POPC      H12Y           57.2725761547        1.3826075075        6.2148158649  MEMB      100             0.0000000000
     11528       100  POPC      C313           56.6358129635        1.8818686797        4.2746241643  MEMB      100             0.0000000000
     11529       100  POPC      H13X           57.7461469217        1.8635982755        4.2407750063  MEMB      100             0.0000000000
     11530       100  POPC      H13Y           56.2015134685        2.7969848593        3.8182607935  MEMB      100             0.0000000000
     11531       100  POPC      C314           55.9128937010        0.7568676163        3.4657013010  MEMB      100             0.0000000000
     11532       100  POPC      H14X           54.9074569012        0.6521696984        3.9266309329  MEMB      100             0.0000000000
     11533       100  POPC      H14Y           56.5338703051       -0.1494715307        3.6308024541  MEMB      100             0.0000000000
     11534       100  POPC      C315           55.9022748626        1.0056411536        1.9237127384  MEMB      100             0.0000000000
     11535       100  POPC      H15X           56.9487999564        1.2989298167        1.6933046451  MEMB      100             0.0000000000
     11536       100  POPC      H15Y           55.2048447951        1.8383243100        1.6901511845  MEMB      100             0.0000000000
     11537       100  POPC      C316           55.4713224902       -0.1983906292        1.1355030391  MEMB      100             0.0000000000
     11538       100  POPC      H16X           56.0319524281       -0.2894255271        0.1806589246  MEMB      100             0.0000000000
     11539       100  POPC      H16Y           54.3710069590       -0.1093216209        1.0102292806  MEMB      100             0.0000000000
     11540       100  POPC      H16Z           55.8115758041       -1.0592615069        1.7498722492  MEMB      100             0.0000000000
     11541       101  POPC      N             -31.9331430025      -41.5462516737       20.5720920267  MEMB      101             0.0000000000
     11542       101  POPC      C12           -31.5027487921      -42.3908404663       19.3835318246  MEMB      101             0.0000000000
     11543       101  POPC      H12A          -31.2193152496      -43.3388012804       19.8164702521  MEMB      101             0.0000000000
     11544       101  POPC      H12B          -30.5992409100      -42.0392516031       18.9076551644  MEMB      101             0.0000000000
     11545       101  POPC      C13           -32.4777310300      -40.1636102062       20.2796748236  MEMB      101             0.0000000000
     11546       101  POPC      H13A          -32.5944212472      -39.5170181549       21.1368223836  MEMB      101             0.0000000000
     11547       101  POPC      H13B          -31.8636130404      -39.6661801791       19.5435888718  MEMB      101             0.0000000000
     11548       101  POPC      H13C          -33.3810281515      -40.2319660051       19.6916427150  MEMB      101             0.0000000000
     11549       101  POPC      C14           -32.9814695681      -42.4667073680       21.2738017493  MEMB      101             0.0000000000
     11550       101  POPC      H14A          -33.6889596883      -42.6718239737       20.4840013028  MEMB      101             0.0000000000
     11551       101  POPC      H14B          -32.6078911271      -43.4014218544       21.6651430005  MEMB      101             0.0000000000
     11552       101  POPC      H14C          -33.2870578995      -41.8577082756       22.1117374227  MEMB      101             0.0000000000
     11553       101  POPC      C15           -30.6732415486      -41.4672237127       21.4629982242  MEMB      101             0.0000000000
     11554       101  POPC      H15A          -31.0724132785      -40.9952101041       22.3485855587  MEMB      101             0.0000000000
     11555       101  POPC      H15B          -29.8592323702      -40.8894193472       21.0507708252  MEMB      101             0.0000000000
     11556       101  POPC      H15C          -30.3863197592      -42.4527229654       21.7989551570  MEMB      101             0.0000000000
     11557       101  POPC      C11           -32.4877389171      -42.5897261749       18.2341121272  MEMB      101             0.0000000000
     11558       101  POPC      H11A          -31.9587111104      -43.3158247016       17.5804825704  MEMB      101             0.0000000000
     11559       101  POPC      H11B          -32.4855827497      -41.5767552427       17.7778160175  MEMB      101             0.0000000000
     11560       101  POPC      P             -34.7497233108      -43.7690310100       17.5683631579  MEMB      101             0.0000000000
     11561       101  POPC      O13           -35.9982031691      -44.1584610837       18.2203005189  MEMB      101             0.0000000000
     11562       101  POPC      O14           -33.9611909290      -44.7663638568       16.9063775286  MEMB      101             0.0000000000
     11563       101  POPC      O12           -33.8767971488      -42.9761281294       18.6238729385  MEMB      101             0.0000000000
     11564       101  POPC      O11           -35.0406903979      -42.5710917781       16.4748750857  MEMB      101             0.0000000000
     11565       101  POPC      C1            -35.2523065268      -41.2489045132       17.0737543564  MEMB      101             0.0000000000
     11566       101  POPC      HA            -34.3596153367      -40.9066911785       17.6397168497  MEMB      101             0.0000000000
     11567       101  POPC      HB            -35.9836570327      -41.2813669553       17.9094537947  MEMB      101             0.0000000000
     11568       101  POPC      C2            -35.6256006882      -40.1817767348       16.0371514179  MEMB      101             0.0000000000
     11569       101  POPC      HS            -36.1668696510      -39.3652442149       16.5611966565  MEMB      101             0.0000000000
     11570       101  POPC      O21           -36.5156225216      -40.7721282391       15.0811635078  MEMB      101             0.0000000000
     11571       101  POPC      C21           -37.6782700752      -41.1084064257       15.4055037821  MEMB      101             0.0000000000
     11572       101  POPC      O22           -38.2160494120      -40.8462460688       16.4735301297  MEMB      101             0.0000000000
     11573       101  POPC      C22           -38.2182789863      -42.0772437640       14.3532010924  MEMB      101             0.0000000000
     11574       101  POPC      H2R           -38.5950600731      -41.5716236614       13.4384854695  MEMB      101             0.0000000000
     11575       101  POPC      H2S           -39.1851445218      -42.4543695829       14.7497721516  MEMB      101             0.0000000000
     11576       101  POPC      C3            -34.3507792053      -39.7105975205       15.3145576598  MEMB      101             0.0000000000
     11577       101  POPC      HX            -33.6508475513      -39.2909344884       16.0684139103  MEMB      101             0.0000000000
     11578       101  POPC      HY            -34.5526336240      -38.8974165702       14.5849603827  MEMB      101             0.0000000000
     11579       101  POPC      O31           -33.6842562118      -40.8451165076       14.7340501620  MEMB      101             0.0000000000
     11580       101  POPC      C31           -33.8845254529      -41.1271656985       13.4172499011  MEMB      101             0.0000000000
     11581       101  POPC      O32           -34.6006299270      -40.4330463252       12.7241934503  MEMB      101             0.0000000000
     11582       101  POPC      C32           -33.1577219291      -42.3011567605       12.8941401430  MEMB      101             0.0000000000
     11583       101  POPC      H2X           -33.7594781905      -43.2348572295       12.9144844157  MEMB      101             0.0000000000
     11584       101  POPC      H2Y           -32.3660190813      -42.5207096908       13.6420200239  MEMB      101             0.0000000000
     11585       101  POPC      C23           -37.2092832326      -43.1976037151       13.9029752083  MEMB      101             0.0000000000
     11586       101  POPC      H3R           -36.8631256389      -43.7516515770       14.8016002633  MEMB      101             0.0000000000
     11587       101  POPC      H3S           -36.2901884145      -42.7618076451       13.4561334375  MEMB      101             0.0000000000
     11588       101  POPC      C24           -37.7608528574      -44.2478533895       12.9735848632  MEMB      101             0.0000000000
     11589       101  POPC      H4R           -38.6955213860      -44.6805929353       13.3900604845  MEMB      101             0.0000000000
     11590       101  POPC      H4S           -36.9715266098      -45.0118508177       12.8074733055  MEMB      101             0.0000000000
     11591       101  POPC      C25           -38.0181121594      -43.7099780127       11.5627751424  MEMB      101             0.0000000000
     11592       101  POPC      H5R           -38.8773207736      -43.0069348336       11.5202084858  MEMB      101             0.0000000000
     11593       101  POPC      H5S           -38.2656715673      -44.6676111491       11.0568365885  MEMB      101             0.0000000000
     11594       101  POPC      C26           -36.8255211917      -43.1300404316       10.8335486755  MEMB      101             0.0000000000
     11595       101  POPC      H6R           -36.0603345137      -43.9355219493       10.8367070828  MEMB      101             0.0000000000
     11596       101  POPC      H6S           -36.4397352289      -42.2340780528       11.3652833712  MEMB      101             0.0000000000
     11597       101  POPC      C27           -37.1989674656      -42.6587511139        9.3722426290  MEMB      101             0.0000000000
     11598       101  POPC      H7R           -38.1175176164      -42.0367545754        9.3113565655  MEMB      101             0.0000000000
     11599       101  POPC      H7S           -37.3910398333      -43.6429114704        8.8938523853  MEMB      101             0.0000000000
     11600       101  POPC      C28           -35.9693462888      -41.8981505564        8.6469445611  MEMB      101             0.0000000000
     11601       101  POPC      H8R           -35.9964192736      -42.0054934616        7.5414737340  MEMB      101             0.0000000000
     11602       101  POPC      H8S           -35.1001843743      -42.5777785235        8.7772689080  MEMB      101             0.0000000000
     11603       101  POPC      C29           -35.6426180997      -40.5513257009        9.2161263188  MEMB      101             0.0000000000
     11604       101  POPC      H91           -35.6699164932      -40.5506381729       10.3157868902  MEMB      101             0.0000000000
     11605       101  POPC      C210          -35.1156998095      -39.5617791549        8.5364991067  MEMB      101             0.0000000000
     11606       101  POPC      H101          -34.9375680770      -38.6364378945        9.1039607792  MEMB      101             0.0000000000
     11607       101  POPC      C211          -34.6878919531      -39.6071092236        7.0815461778  MEMB      101             0.0000000000
     11608       101  POPC      H11R          -34.5002779539      -40.6259153827        6.6801045143  MEMB      101             0.0000000000
     11609       101  POPC      H11S          -33.7905875122      -38.9737885597        6.9140038388  MEMB      101             0.0000000000
     11610       101  POPC      C212          -35.7215604560      -38.9381932716        6.1942369250  MEMB      101             0.0000000000
     11611       101  POPC      H12R          -35.7050887343      -37.8476039013        6.4055776871  MEMB      101             0.0000000000
     11612       101  POPC      H12S          -36.7358168341      -39.3902002851        6.1582532249  MEMB      101             0.0000000000
     11613       101  POPC      C213          -35.2522680262      -39.0838162689        4.7082141705  MEMB      101             0.0000000000
     11614       101  POPC      H13R          -35.3430546216      -40.1611533872        4.4524334688  MEMB      101             0.0000000000
     11615       101  POPC      H13S          -34.1544836285      -39.0242634382        4.5480762815  MEMB      101             0.0000000000
     11616       101  POPC      C214          -36.2397678240      -38.4446154408        3.7712250474  MEMB      101             0.0000000000
     11617       101  POPC      H14R          -36.2009668690      -37.3388871738        3.8721210929  MEMB      101             0.0000000000
     11618       101  POPC      H14S          -37.2599460652      -38.8072698541        4.0203015800  MEMB      101             0.0000000000
     11619       101  POPC      C215          -36.1143324882      -38.7426636965        2.3259118979  MEMB      101             0.0000000000
     11620       101  POPC      H15R          -36.9993012200      -38.3160222833        1.8071355778  MEMB      101             0.0000000000
     11621       101  POPC      H15S          -36.0309841244      -39.8308360264        2.1179330068  MEMB      101             0.0000000000
     11622       101  POPC      C216          -34.8498069172      -38.2327328785        1.5411682177  MEMB      101             0.0000000000
     11623       101  POPC      H16R          -34.0128520565      -38.9449484918        1.7041922218  MEMB      101             0.0000000000
     11624       101  POPC      H16S          -34.5195421150      -37.2814332738        2.0105030853  MEMB      101             0.0000000000
     11625       101  POPC      C217          -35.0725202125      -37.8808884235        0.0256545555  MEMB      101             0.0000000000
     11626       101  POPC      H17R          -34.1419915136      -37.5714133923       -0.4965175077  MEMB      101             0.0000000000
     11627       101  POPC      H17S          -35.5487984856      -36.8795798031        0.0953753063  MEMB      101             0.0000000000
     11628       101  POPC      C218          -35.8666965252      -38.8842794895       -0.8592403614  MEMB      101             0.0000000000
     11629       101  POPC      H18R          -35.8255511955      -39.9534662738       -0.5601278544  MEMB      101             0.0000000000
     11630       101  POPC      H18S          -35.4073256227      -38.8151760846       -1.8684595662  MEMB      101             0.0000000000
     11631       101  POPC      H18T          -36.9272253340      -38.5619270193       -0.9346615687  MEMB      101             0.0000000000
     11632       101  POPC      C33           -32.7663591831      -42.0229733586       11.4940517237  MEMB      101             0.0000000000
     11633       101  POPC      H3X           -32.2849055192      -41.0430118218       11.2886284856  MEMB      101             0.0000000000
     11634       101  POPC      H3Y           -33.6756418977      -42.0143877854       10.8557319086  MEMB      101             0.0000000000
     11635       101  POPC      C34           -31.9544749277      -43.1691205341       10.9953346065  MEMB      101             0.0000000000
     11636       101  POPC      H4X           -32.4283944120      -44.1496306276       11.2151550443  MEMB      101             0.0000000000
     11637       101  POPC      H4Y           -30.9754297810      -43.2066485725       11.5191502190  MEMB      101             0.0000000000
     11638       101  POPC      C35           -31.5398135960      -43.0502913961        9.4929272405  MEMB      101             0.0000000000
     11639       101  POPC      H5X           -32.4515609983      -42.9615002322        8.8643150508  MEMB      101             0.0000000000
     11640       101  POPC      H5Y           -31.0652897434      -44.0415452574        9.3299431550  MEMB      101             0.0000000000
     11641       101  POPC      C36           -30.4998859211      -41.9655424508        9.3558710439  MEMB      101             0.0000000000
     11642       101  POPC      H6X           -29.5516919559      -42.3792280953        9.7609797339  MEMB      101             0.0000000000
     11643       101  POPC      H6Y           -30.5849052459      -41.0355136804        9.9576504962  MEMB      101             0.0000000000
     11644       101  POPC      C37           -30.1838535267      -41.6394114966        7.9005598242  MEMB      101             0.0000000000
     11645       101  POPC      H7X           -29.8699454563      -42.5823622490        7.4039449885  MEMB      101             0.0000000000
     11646       101  POPC      H7Y           -29.3483682739      -40.9150570439        7.7928765184  MEMB      101             0.0000000000
     11647       101  POPC      C38           -31.3285483203      -40.9647211477        7.1100978041  MEMB      101             0.0000000000
     11648       101  POPC      H8X           -31.3049248217      -39.8900933700        7.3910570726  MEMB      101             0.0000000000
     11649       101  POPC      H8Y           -32.2466504778      -41.4985415175        7.4363569730  MEMB      101             0.0000000000
     11650       101  POPC      C39           -31.2062008663      -41.0495157996        5.6047126158  MEMB      101             0.0000000000
     11651       101  POPC      H9X           -30.1787246625      -40.7899451910        5.2711897116  MEMB      101             0.0000000000
     11652       101  POPC      H9Y           -31.9130363806      -40.3327429010        5.1346685173  MEMB      101             0.0000000000
     11653       101  POPC      C310          -31.5514709644      -42.4351319783        5.0644025807  MEMB      101             0.0000000000
     11654       101  POPC      H10X          -30.9076927499      -43.2742020508        5.4047441667  MEMB      101             0.0000000000
     11655       101  POPC      H10Y          -31.2236494543      -42.2375776066        4.0214134960  MEMB      101             0.0000000000
     11656       101  POPC      C311          -33.0215056565      -42.7857981088        5.1228187898  MEMB      101             0.0000000000
     11657       101  POPC      H11X          -33.6661935645      -41.8853039372        5.0344524202  MEMB      101             0.0000000000
     11658       101  POPC      H11Y          -33.2947476423      -43.2107013725        6.1123225459  MEMB      101             0.0000000000
     11659       101  POPC      C312          -33.4747978531      -43.8485007998        4.1103354653  MEMB      101             0.0000000000
     11660       101  POPC      H12X          -34.3752684398      -44.3330511610        4.5447137614  MEMB      101             0.0000000000
     11661       101  POPC      H12Y          -32.7261997671      -44.6676267167        4.0559780213  MEMB      101             0.0000000000
     11662       101  POPC      C313          -33.8508595252      -43.3170728482        2.7069843176  MEMB      101             0.0000000000
     11663       101  POPC      H13X          -33.2158809420      -42.4357948866        2.4735903180  MEMB      101             0.0000000000
     11664       101  POPC      H13Y          -34.9274011682      -43.0479163193        2.6528185105  MEMB      101             0.0000000000
     11665       101  POPC      C314          -33.6075731231      -44.3264190160        1.4909520549  MEMB      101             0.0000000000
     11666       101  POPC      H14X          -32.9827077688      -45.1499373718        1.8979930138  MEMB      101             0.0000000000
     11667       101  POPC      H14Y          -32.9809469056      -43.8129534863        0.7306811851  MEMB      101             0.0000000000
     11668       101  POPC      C315          -34.8952833353      -44.9989484995        0.9585362198  MEMB      101             0.0000000000
     11669       101  POPC      H15X          -35.5553744479      -45.3950239018        1.7596124017  MEMB      101             0.0000000000
     11670       101  POPC      H15Y          -34.5871274751      -45.9078551969        0.3988496705  MEMB      101             0.0000000000
     11671       101  POPC      C316          -35.6582873230      -44.1369141564        0.0495936437  MEMB      101             0.0000000000
     11672       101  POPC      H16X          -36.3829273571      -43.4503955424        0.5373541587  MEMB      101             0.0000000000
     11673       101  POPC      H16Y          -36.2181361948      -44.6519888325       -0.7600906241  MEMB      101             0.0000000000
     11674       101  POPC      H16Z          -34.8334694732      -43.5573999109       -0.4174807543  MEMB      101             0.0000000000
     11675       102  POPC      N              43.5782273357      -30.8565407871       20.8387991551  MEMB      102             0.0000000000
     11676       102  POPC      C12            43.8298564826      -32.3764444131       20.7996885555  MEMB      102             0.0000000000
     11677       102  POPC      H12A           43.1342704231      -32.9451092103       21.3990051293  MEMB      102             0.0000000000
     11678       102  POPC      H12B           44.7354627313      -32.6157769809       21.3372730802  MEMB      102             0.0000000000
     11679       102  POPC      C13            44.7197411492      -30.1566866299       20.0501179038  MEMB      102             0.0000000000
     11680       102  POPC      H13A           45.5372594396      -30.2640546744       20.7476393890  MEMB      102             0.0000000000
     11681       102  POPC      H13B           44.9668223948      -30.7593192753       19.1886164937  MEMB      102             0.0000000000
     11682       102  POPC      H13C           44.4560754464      -29.1413342714       19.7933303383  MEMB      102             0.0000000000
     11683       102  POPC      C14            42.2495893513      -30.4979746058       20.2181496999  MEMB      102             0.0000000000
     11684       102  POPC      H14A           41.4466381192      -30.8834019358       20.8289812111  MEMB      102             0.0000000000
     11685       102  POPC      H14B           42.2635158152      -29.4432678088       19.9862025605  MEMB      102             0.0000000000
     11686       102  POPC      H14C           42.1058957376      -31.0904664494       19.3266870551  MEMB      102             0.0000000000
     11687       102  POPC      C15            43.6642235419      -30.1815908782       22.1525189361  MEMB      102             0.0000000000
     11688       102  POPC      H15A           42.7040753281      -30.4370475479       22.5759068014  MEMB      102             0.0000000000
     11689       102  POPC      H15B           43.7843716844      -29.1203877887       21.9918565475  MEMB      102             0.0000000000
     11690       102  POPC      H15C           44.4914297140      -30.7211122579       22.5896079625  MEMB      102             0.0000000000
     11691       102  POPC      C11            43.9606863286      -33.0626804605       19.4350886395  MEMB      102             0.0000000000
     11692       102  POPC      H11A           44.3023522556      -34.1158311652       19.5270622327  MEMB      102             0.0000000000
     11693       102  POPC      H11B           44.7810676107      -32.4981890609       18.9424984637  MEMB      102             0.0000000000
     11694       102  POPC      P              42.9888204921      -33.4485758041       17.0784590278  MEMB      102             0.0000000000
     11695       102  POPC      O13            44.1315193343      -34.3047892173       16.7943903762  MEMB      102             0.0000000000
     11696       102  POPC      O14            42.8642144232      -32.1436132358       16.3373857043  MEMB      102             0.0000000000
     11697       102  POPC      O12            42.7616249995      -33.0706229024       18.6257859655  MEMB      102             0.0000000000
     11698       102  POPC      O11            41.7740496710      -34.3096614611       16.6696160873  MEMB      102             0.0000000000
     11699       102  POPC      C1             41.1528068676      -35.2180242405       17.5988125860  MEMB      102             0.0000000000
     11700       102  POPC      HA             40.5181815252      -34.8270401510       18.4226470201  MEMB      102             0.0000000000
     11701       102  POPC      HB             41.8993501140      -35.8384632307       18.1392287682  MEMB      102             0.0000000000
     11702       102  POPC      C2             40.2421857811      -36.2281080001       16.7763394147  MEMB      102             0.0000000000
     11703       102  POPC      HS             40.1248027152      -37.0740510701       17.4869184111  MEMB      102             0.0000000000
     11704       102  POPC      O21            40.8033691120      -36.7275417156       15.5437960202  MEMB      102             0.0000000000
     11705       102  POPC      C21            41.9313035779      -37.3965176048       15.5354805560  MEMB      102             0.0000000000
     11706       102  POPC      O22            42.6913074814      -37.5659266973       16.4691401123  MEMB      102             0.0000000000
     11707       102  POPC      C22            42.2025829941      -37.5988314226       14.0634397516  MEMB      102             0.0000000000
     11708       102  POPC      H2R            41.1700734129      -37.6726577440       13.6599622442  MEMB      102             0.0000000000
     11709       102  POPC      H2S            42.6114230230      -38.6068451634       13.8374319527  MEMB      102             0.0000000000
     11710       102  POPC      C3             38.8161680211      -35.8026185055       16.4144556927  MEMB      102             0.0000000000
     11711       102  POPC      HX             38.2356818318      -35.5644442792       17.3313142125  MEMB      102             0.0000000000
     11712       102  POPC      HY             38.3549063081      -36.7022707946       15.9538204835  MEMB      102             0.0000000000
     11713       102  POPC      O31            38.8340693141      -34.6633454399       15.5607721736  MEMB      102             0.0000000000
     11714       102  POPC      C31            38.7326186434      -34.8214839461       14.1789920194  MEMB      102             0.0000000000
     11715       102  POPC      O32            38.5729881823      -35.9053217868       13.6209191281  MEMB      102             0.0000000000
     11716       102  POPC      C32            38.8332466349      -33.5301551200       13.4538446789  MEMB      102             0.0000000000
     11717       102  POPC      H2X            37.9843034873      -32.8721510763       13.7378292222  MEMB      102             0.0000000000
     11718       102  POPC      H2Y            38.7962323393      -33.7623112839       12.3680019029  MEMB      102             0.0000000000
     11719       102  POPC      C23            43.0614081256      -36.4570828787       13.3207551450  MEMB      102             0.0000000000
     11720       102  POPC      H3R            44.0194121349      -36.4615322986       13.8833644731  MEMB      102             0.0000000000
     11721       102  POPC      H3S            42.3741014400      -35.6008073385       13.4902327481  MEMB      102             0.0000000000
     11722       102  POPC      C24            43.0852839553      -36.7775128665       11.8119265938  MEMB      102             0.0000000000
     11723       102  POPC      H4R            42.3144887089      -37.5339341307       11.5511147060  MEMB      102             0.0000000000
     11724       102  POPC      H4S            44.0574210453      -37.1794513468       11.4545527700  MEMB      102             0.0000000000
     11725       102  POPC      C25            42.7398785215      -35.6333419452       10.8263185692  MEMB      102             0.0000000000
     11726       102  POPC      H5R            43.0271293812      -36.0801083066        9.8505072397  MEMB      102             0.0000000000
     11727       102  POPC      H5S            43.4359449150      -34.7707859220       10.9025392563  MEMB      102             0.0000000000
     11728       102  POPC      C26            41.3192863189      -35.0921737403       10.7419158847  MEMB      102             0.0000000000
     11729       102  POPC      H6R            41.1929735193      -34.7152971149       11.7793792198  MEMB      102             0.0000000000
     11730       102  POPC      H6S            40.6400456287      -35.9216849886       10.4506014547  MEMB      102             0.0000000000
     11731       102  POPC      C27            41.3510435475      -34.0291537299        9.7166715925  MEMB      102             0.0000000000
     11732       102  POPC      H7R            41.8902440911      -34.4867925863        8.8598459027  MEMB      102             0.0000000000
     11733       102  POPC      H7S            41.9215743756      -33.1895620274       10.1682260526  MEMB      102             0.0000000000
     11734       102  POPC      C28            39.9285361537      -33.5260472882        9.3146905379  MEMB      102             0.0000000000
     11735       102  POPC      H8R            40.0535450891      -32.4971429327        8.9146291943  MEMB      102             0.0000000000
     11736       102  POPC      H8S            39.2998576682      -33.4321212063       10.2258781624  MEMB      102             0.0000000000
     11737       102  POPC      C29            39.2664980876      -34.4990307185        8.4042494957  MEMB      102             0.0000000000
     11738       102  POPC      H91            38.8686986355      -35.3992591629        8.8955177436  MEMB      102             0.0000000000
     11739       102  POPC      C210           39.1994660808      -34.4429597743        7.0778223208  MEMB      102             0.0000000000
     11740       102  POPC      H101           38.8002028660      -35.3703518880        6.6413209216  MEMB      102             0.0000000000
     11741       102  POPC      C211           39.7413031795      -33.4095516992        6.1257160786  MEMB      102             0.0000000000
     11742       102  POPC      H11R           39.6868603785      -33.8801267439        5.1207710471  MEMB      102             0.0000000000
     11743       102  POPC      H11S           40.7312338802      -33.0264137582        6.4536862348  MEMB      102             0.0000000000
     11744       102  POPC      C212           38.8964015625      -32.1665601414        6.1100052503  MEMB      102             0.0000000000
     11745       102  POPC      H12R           38.9852197148      -31.8292796196        7.1648393833  MEMB      102             0.0000000000
     11746       102  POPC      H12S           37.8376473056      -32.4175869009        5.8856266399  MEMB      102             0.0000000000
     11747       102  POPC      C213           39.3668622437      -31.0210024733        5.1977672270  MEMB      102             0.0000000000
     11748       102  POPC      H13R           40.4745032843      -31.0066158515        5.2828863033  MEMB      102             0.0000000000
     11749       102  POPC      H13S           39.0394366160      -30.0931554075        5.7137253955  MEMB      102             0.0000000000
     11750       102  POPC      C214           38.8532920849      -30.9096530109        3.8360190642  MEMB      102             0.0000000000
     11751       102  POPC      H14R           39.4349538851      -30.0978753400        3.3491846627  MEMB      102             0.0000000000
     11752       102  POPC      H14S           37.8323592615      -30.4794317716        3.9192464778  MEMB      102             0.0000000000
     11753       102  POPC      C215           38.9484161757      -32.1456233840        2.9612843401  MEMB      102             0.0000000000
     11754       102  POPC      H15R           38.1998678729      -32.8587587501        3.3680208699  MEMB      102             0.0000000000
     11755       102  POPC      H15S           39.9831415346      -32.5498092095        2.9785532612  MEMB      102             0.0000000000
     11756       102  POPC      C216           38.4924802216      -31.7990741431        1.5681348107  MEMB      102             0.0000000000
     11757       102  POPC      H16R           37.7966718923      -30.9471813423        1.7245016138  MEMB      102             0.0000000000
     11758       102  POPC      H16S           37.8779058892      -32.5881743837        1.0844613485  MEMB      102             0.0000000000
     11759       102  POPC      C217           39.5515208793      -31.2247523330        0.6108648456  MEMB      102             0.0000000000
     11760       102  POPC      H17R           40.3094223844      -30.6176247227        1.1505876270  MEMB      102             0.0000000000
     11761       102  POPC      H17S           39.0659306230      -30.6530220966       -0.2086770548  MEMB      102             0.0000000000
     11762       102  POPC      C218           40.3088148139      -32.4404461398       -0.1060242226  MEMB      102             0.0000000000
     11763       102  POPC      H18R           40.7078729855      -33.1751380847        0.6256196102  MEMB      102             0.0000000000
     11764       102  POPC      H18S           41.1199469853      -31.9933233970       -0.7195929112  MEMB      102             0.0000000000
     11765       102  POPC      H18T           39.6249142527      -32.9310845087       -0.8311960951  MEMB      102             0.0000000000
     11766       102  POPC      C33            40.1897499681      -32.7864466957       13.7686526895  MEMB      102             0.0000000000
     11767       102  POPC      H3X            40.9221765578      -33.6113128741       13.6364859179  MEMB      102             0.0000000000
     11768       102  POPC      H3Y            40.1649580436      -32.2263345212       14.7278093285  MEMB      102             0.0000000000
     11769       102  POPC      C34            40.3426927479      -31.7762911480       12.6868924715  MEMB      102             0.0000000000
     11770       102  POPC      H4X            39.4679736280      -31.2121916844       12.2983316580  MEMB      102             0.0000000000
     11771       102  POPC      H4Y            40.5716834983      -32.3152869054       11.7427694898  MEMB      102             0.0000000000
     11772       102  POPC      C35            41.6323440826      -30.9468910932       12.9758691339  MEMB      102             0.0000000000
     11773       102  POPC      H5X            42.4865293626      -31.6567316126       13.0044163212  MEMB      102             0.0000000000
     11774       102  POPC      H5Y            41.4972986104      -30.5944900839       14.0208080214  MEMB      102             0.0000000000
     11775       102  POPC      C36            41.7283022097      -29.7102371984       12.0279411793  MEMB      102             0.0000000000
     11776       102  POPC      H6X            42.5870393052      -29.0997976599       12.3804395572  MEMB      102             0.0000000000
     11777       102  POPC      H6Y            40.8564241916      -29.0470885270       12.2133691445  MEMB      102             0.0000000000
     11778       102  POPC      C37            41.8729649358      -29.9292091340       10.5311199056  MEMB      102             0.0000000000
     11779       102  POPC      H7X            41.9231410615      -28.9177408079       10.0742447703  MEMB      102             0.0000000000
     11780       102  POPC      H7Y            40.9794609785      -30.5119519410       10.2206656827  MEMB      102             0.0000000000
     11781       102  POPC      C38            43.1539597315      -30.7226011853       10.0636260718  MEMB      102             0.0000000000
     11782       102  POPC      H8X            43.4314101978      -31.6479940227       10.6122524959  MEMB      102             0.0000000000
     11783       102  POPC      H8Y            43.8739418000      -29.8776053153       10.1075442384  MEMB      102             0.0000000000
     11784       102  POPC      C39            43.1340505597      -31.1484307868        8.5492958117  MEMB      102             0.0000000000
     11785       102  POPC      H9X            42.4843202068      -30.4417506247        7.9900335338  MEMB      102             0.0000000000
     11786       102  POPC      H9Y            42.7665727438      -32.1947870704        8.4828159877  MEMB      102             0.0000000000
     11787       102  POPC      C310           44.5929879568      -31.2060173502        7.9900750162  MEMB      102             0.0000000000
     11788       102  POPC      H10X           45.1856549920      -31.9195608689        8.6015665717  MEMB      102             0.0000000000
     11789       102  POPC      H10Y           45.1600809684      -30.2565507775        8.0960905894  MEMB      102             0.0000000000
     11790       102  POPC      C311           44.5455655811      -31.4888696761        6.4676236320  MEMB      102             0.0000000000
     11791       102  POPC      H11X           45.6290307584      -31.5566496257        6.2313388474  MEMB      102             0.0000000000
     11792       102  POPC      H11Y           44.1823004986      -30.6792182007        5.7991747157  MEMB      102             0.0000000000
     11793       102  POPC      C312           43.8223617873      -32.8061204470        6.0261522582  MEMB      102             0.0000000000
     11794       102  POPC      H12X           42.7611190123      -32.4954248959        6.1336369720  MEMB      102             0.0000000000
     11795       102  POPC      H12Y           43.9101262683      -33.6181689500        6.7792763309  MEMB      102             0.0000000000
     11796       102  POPC      C313           44.2148308170      -33.2835819792        4.6302453653  MEMB      102             0.0000000000
     11797       102  POPC      H13X           44.0189818861      -34.3735324966        4.5409595263  MEMB      102             0.0000000000
     11798       102  POPC      H13Y           45.2955044955      -33.0740788960        4.4799980377  MEMB      102             0.0000000000
     11799       102  POPC      C314           43.4070655680      -32.5765812376        3.5297935705  MEMB      102             0.0000000000
     11800       102  POPC      H14X           43.6698390948      -31.4971039043        3.5296260279  MEMB      102             0.0000000000
     11801       102  POPC      H14Y           42.3332327623      -32.5438107750        3.8128664306  MEMB      102             0.0000000000
     11802       102  POPC      C315           43.7080858200      -33.0597752829        2.0745327637  MEMB      102             0.0000000000
     11803       102  POPC      H15X           44.8084594471      -32.9959820526        1.9351457992  MEMB      102             0.0000000000
     11804       102  POPC      H15Y           43.1599152420      -32.4011865488        1.3673604974  MEMB      102             0.0000000000
     11805       102  POPC      C316           43.3171403157      -34.4671869251        1.7990062786  MEMB      102             0.0000000000
     11806       102  POPC      H16X           42.9931864307      -34.6036228270        0.7450793965  MEMB      102             0.0000000000
     11807       102  POPC      H16Y           42.5780698008      -34.8819908851        2.5173604531  MEMB      102             0.0000000000
     11808       102  POPC      H16Z           44.1489363967      -35.1990094322        1.8819023733  MEMB      102             0.0000000000
     11809       103  POPC      N              47.1198567410      -26.3040266175       17.2855293422  MEMB      103             0.0000000000
     11810       103  POPC      C12            47.3492621013      -27.0584502867       18.7033433817  MEMB      103             0.0000000000
     11811       103  POPC      H12A           47.3704876530      -28.1100567993       18.4582448718  MEMB      103             0.0000000000
     11812       103  POPC      H12B           46.5569237414      -26.8440263127       19.4052138920  MEMB      103             0.0000000000
     11813       103  POPC      C13            48.3659243860      -26.1995882886       16.4820975794  MEMB      103             0.0000000000
     11814       103  POPC      H13A           48.7222675294      -27.2000286696       16.2857850757  MEMB      103             0.0000000000
     11815       103  POPC      H13B           48.0572187925      -25.5908382168       15.6451244096  MEMB      103             0.0000000000
     11816       103  POPC      H13C           49.1064878270      -25.7646014183       17.1368894554  MEMB      103             0.0000000000
     11817       103  POPC      C14            46.1110578810      -27.0761661992       16.5148315604  MEMB      103             0.0000000000
     11818       103  POPC      H14A           46.5665401400      -28.0164574733       16.2413572421  MEMB      103             0.0000000000
     11819       103  POPC      H14B           45.3151221642      -27.2107316879       17.2323122901  MEMB      103             0.0000000000
     11820       103  POPC      H14C           45.9211988333      -26.5950160846       15.5667554491  MEMB      103             0.0000000000
     11821       103  POPC      C15            46.5539177809      -24.8876383964       17.4703395562  MEMB      103             0.0000000000
     11822       103  POPC      H15A           45.6458136339      -25.0409180780       18.0344778942  MEMB      103             0.0000000000
     11823       103  POPC      H15B           46.4097924074      -24.4394686461       16.4983459056  MEMB      103             0.0000000000
     11824       103  POPC      H15C           47.2478000153      -24.2905341971       18.0433963135  MEMB      103             0.0000000000
     11825       103  POPC      C11            48.7022534426      -26.7643081214       19.3833192012  MEMB      103             0.0000000000
     11826       103  POPC      H11A           49.5646910280      -27.1294274405       18.7856485149  MEMB      103             0.0000000000
     11827       103  POPC      H11B           48.7283024056      -27.4191455402       20.2804426055  MEMB      103             0.0000000000
     11828       103  POPC      P              50.0079397811      -24.8400666538       20.6970137957  MEMB      103             0.0000000000
     11829       103  POPC      O13            49.7096263340      -25.1441086803       22.1407761735  MEMB      103             0.0000000000
     11830       103  POPC      O14            50.2412946988      -23.3982714394       20.3341280271  MEMB      103             0.0000000000
     11831       103  POPC      O12            48.8463746853      -25.3651595548       19.7237827334  MEMB      103             0.0000000000
     11832       103  POPC      O11            51.2432212370      -25.7743739443       20.2648386651  MEMB      103             0.0000000000
     11833       103  POPC      C1             52.5737214364      -25.3538105347       20.2423131920  MEMB      103             0.0000000000
     11834       103  POPC      HA             53.3337088714      -26.0563743818       20.6462242814  MEMB      103             0.0000000000
     11835       103  POPC      HB             52.7963493630      -24.4237597619       20.8077890151  MEMB      103             0.0000000000
     11836       103  POPC      C2             53.0373738552      -25.1986330491       18.7815465716  MEMB      103             0.0000000000
     11837       103  POPC      HS             54.0887106379      -24.8494097240       18.6975537660  MEMB      103             0.0000000000
     11838       103  POPC      O21            52.1694467701      -24.3044743005       18.0457066867  MEMB      103             0.0000000000
     11839       103  POPC      C21            52.5779046039      -23.0356290181       17.9110240230  MEMB      103             0.0000000000
     11840       103  POPC      O22            53.4984560530      -22.4956081865       18.5184059077  MEMB      103             0.0000000000
     11841       103  POPC      C22            51.7353247473      -22.3025321456       16.8439795224  MEMB      103             0.0000000000
     11842       103  POPC      H2R            52.3679719520      -22.3385235182       15.9314101111  MEMB      103             0.0000000000
     11843       103  POPC      H2S            51.6805387684      -21.2384640215       17.1587468099  MEMB      103             0.0000000000
     11844       103  POPC      C3             53.0696703546      -26.5219635322       18.0654849531  MEMB      103             0.0000000000
     11845       103  POPC      HX             52.0788713084      -27.0244568392       18.0772737303  MEMB      103             0.0000000000
     11846       103  POPC      HY             53.7517375979      -27.2537430097       18.5488107637  MEMB      103             0.0000000000
     11847       103  POPC      O31            53.5483533633      -26.3277547302       16.7351637816  MEMB      103             0.0000000000
     11848       103  POPC      C31            52.8298909209      -26.5886637012       15.6550486697  MEMB      103             0.0000000000
     11849       103  POPC      O32            51.8210371787      -27.2705493871       15.6443555325  MEMB      103             0.0000000000
     11850       103  POPC      C32            53.3758142498      -25.9459863993       14.4345004765  MEMB      103             0.0000000000
     11851       103  POPC      H2X            52.7615378986      -26.3698708294       13.6115133390  MEMB      103             0.0000000000
     11852       103  POPC      H2Y            54.4705608505      -26.1234648328       14.3685263461  MEMB      103             0.0000000000
     11853       103  POPC      C23            50.4403573580      -23.0751274379       16.4244312613  MEMB      103             0.0000000000
     11854       103  POPC      H3R            49.8177250395      -23.4255185657       17.2752401055  MEMB      103             0.0000000000
     11855       103  POPC      H3S            50.7053948984      -23.9924398335       15.8564398488  MEMB      103             0.0000000000
     11856       103  POPC      C24            49.5318551373      -22.1681964807       15.5557375525  MEMB      103             0.0000000000
     11857       103  POPC      H4R            50.2038763217      -21.8578413315       14.7272518779  MEMB      103             0.0000000000
     11858       103  POPC      H4S            49.2020586408      -21.2874555656       16.1472196075  MEMB      103             0.0000000000
     11859       103  POPC      C25            48.2651066966      -22.7924772257       14.9273779133  MEMB      103             0.0000000000
     11860       103  POPC      H5R            47.6922469762      -21.9400292927       14.5037207503  MEMB      103             0.0000000000
     11861       103  POPC      H5S            47.7294455629      -23.2323317507       15.7956612640  MEMB      103             0.0000000000
     11862       103  POPC      C26            48.5516321646      -23.9058202789       13.8924572531  MEMB      103             0.0000000000
     11863       103  POPC      H6R            49.1253775451      -24.7698779347       14.2906301800  MEMB      103             0.0000000000
     11864       103  POPC      H6S            49.1605245757      -23.4202694421       13.1001118355  MEMB      103             0.0000000000
     11865       103  POPC      C27            47.3658990236      -24.3905256372       12.9618051599  MEMB      103             0.0000000000
     11866       103  POPC      H7R            46.9091639322      -23.5167551694       12.4497122183  MEMB      103             0.0000000000
     11867       103  POPC      H7S            46.5346889108      -24.7411543905       13.6102420736  MEMB      103             0.0000000000
     11868       103  POPC      C28            47.7044691807      -25.4211152614       11.9196443985  MEMB      103             0.0000000000
     11869       103  POPC      H8R            48.2875601057      -26.2131264267       12.4364078031  MEMB      103             0.0000000000
     11870       103  POPC      H8S            48.5078201178      -25.0234237626       11.2632992218  MEMB      103             0.0000000000
     11871       103  POPC      C29            46.4154828938      -25.9195893884       11.2743096656  MEMB      103             0.0000000000
     11872       103  POPC      H91            45.7701976695      -26.4915060942       11.9573311305  MEMB      103             0.0000000000
     11873       103  POPC      C210           46.1072283263      -26.0513044664        9.9862515507  MEMB      103             0.0000000000
     11874       103  POPC      H101           45.1260438794      -26.4557993153        9.6970100224  MEMB      103             0.0000000000
     11875       103  POPC      C211           47.0600160590      -25.6975773326        8.7847380840  MEMB      103             0.0000000000
     11876       103  POPC      H11R           48.0381500939      -25.3918348287        9.2138023173  MEMB      103             0.0000000000
     11877       103  POPC      H11S           46.6227723951      -24.8809794120        8.1712992059  MEMB      103             0.0000000000
     11878       103  POPC      C212           47.3376777966      -26.8713322630        7.8014166398  MEMB      103             0.0000000000
     11879       103  POPC      H12R           47.5893822346      -27.7804495101        8.3883331093  MEMB      103             0.0000000000
     11880       103  POPC      H12S           48.1977283976      -26.5463385641        7.1777070381  MEMB      103             0.0000000000
     11881       103  POPC      C213           46.1545455257      -27.1014270351        6.7487115042  MEMB      103             0.0000000000
     11882       103  POPC      H13R           45.1982047646      -27.3874786221        7.2364692911  MEMB      103             0.0000000000
     11883       103  POPC      H13S           46.4685788027      -27.9973325891        6.1715999393  MEMB      103             0.0000000000
     11884       103  POPC      C214           46.1705524851      -25.9510487339        5.7532165805  MEMB      103             0.0000000000
     11885       103  POPC      H14R           47.1063676287      -25.8435231666        5.1641424227  MEMB      103             0.0000000000
     11886       103  POPC      H14S           45.9706935278      -25.0153970648        6.3179583005  MEMB      103             0.0000000000
     11887       103  POPC      C215           45.0584981474      -26.1446379778        4.7813301114  MEMB      103             0.0000000000
     11888       103  POPC      H15R           44.1669273780      -26.0294042831        5.4341270731  MEMB      103             0.0000000000
     11889       103  POPC      H15S           45.0920707281      -27.0649374934        4.1598459842  MEMB      103             0.0000000000
     11890       103  POPC      C216           44.8898006915      -24.9821266006        3.8103062491  MEMB      103             0.0000000000
     11891       103  POPC      H16R           44.8408566787      -24.0037260449        4.3343838923  MEMB      103             0.0000000000
     11892       103  POPC      H16S           43.8942597699      -25.1498255832        3.3465218228  MEMB      103             0.0000000000
     11893       103  POPC      C217           45.8466040556      -25.0234968927        2.5807986774  MEMB      103             0.0000000000
     11894       103  POPC      H17R           45.3354912715      -24.5762564549        1.7015607878  MEMB      103             0.0000000000
     11895       103  POPC      H17S           45.9648746251      -26.0884905764        2.2873355031  MEMB      103             0.0000000000
     11896       103  POPC      C218           47.1671054331      -24.2315955405        2.6472905935  MEMB      103             0.0000000000
     11897       103  POPC      H18R           47.9357581387      -24.7334095135        3.2731321382  MEMB      103             0.0000000000
     11898       103  POPC      H18S           47.0909904657      -23.1776384762        2.9903682879  MEMB      103             0.0000000000
     11899       103  POPC      H18T           47.6156067490      -24.2066101559        1.6311509727  MEMB      103             0.0000000000
     11900       103  POPC      C33            53.1714868209      -24.4352782088       14.4072639172  MEMB      103             0.0000000000
     11901       103  POPC      H3X            53.5759179323      -24.0597934595       15.3715086070  MEMB      103             0.0000000000
     11902       103  POPC      H3Y            52.1159351525      -24.0912988859       14.3647215314  MEMB      103             0.0000000000
     11903       103  POPC      C34            53.9968618631      -23.6055008127       13.4307445950  MEMB      103             0.0000000000
     11904       103  POPC      H4X            55.0788789834      -23.6162000523       13.6826292802  MEMB      103             0.0000000000
     11905       103  POPC      H4Y            53.6625881186      -22.5467185903       13.4702751734  MEMB      103             0.0000000000
     11906       103  POPC      C35            53.7436027524      -24.0521607033       11.9570356818  MEMB      103             0.0000000000
     11907       103  POPC      H5X            52.6559397492      -24.2638801191       11.8765046123  MEMB      103             0.0000000000
     11908       103  POPC      H5Y            54.2242129277      -24.9882321324       11.6005179517  MEMB      103             0.0000000000
     11909       103  POPC      C36            54.0980054077      -22.9804125678       10.9100088278  MEMB      103             0.0000000000
     11910       103  POPC      H6X            55.1476452062      -22.6633592302       11.0890472748  MEMB      103             0.0000000000
     11911       103  POPC      H6Y            53.6104750004      -22.0123954968       11.1540952651  MEMB      103             0.0000000000
     11912       103  POPC      C37            53.9532560367      -23.4185219220        9.5141497225  MEMB      103             0.0000000000
     11913       103  POPC      H7X            54.6217402788      -24.2783664132        9.2947931853  MEMB      103             0.0000000000
     11914       103  POPC      H7Y            54.1194936562      -22.6451854556        8.7339988348  MEMB      103             0.0000000000
     11915       103  POPC      C38            52.5691458009      -24.0276901334        9.2327325630  MEMB      103             0.0000000000
     11916       103  POPC      H8X            51.8044891030      -23.2501892979        9.4451326006  MEMB      103             0.0000000000
     11917       103  POPC      H8Y            52.3842867520      -24.9619016154        9.8049185383  MEMB      103             0.0000000000
     11918       103  POPC      C39            52.4426469504      -24.5078738908        7.8236838545  MEMB      103             0.0000000000
     11919       103  POPC      H9X            53.3959881846      -24.9029353439        7.4121156807  MEMB      103             0.0000000000
     11920       103  POPC      H9Y            52.1997687774      -23.6321220116        7.1846302621  MEMB      103             0.0000000000
     11921       103  POPC      C310           51.4544112537      -25.7001185919        7.5387707699  MEMB      103             0.0000000000
     11922       103  POPC      H10X           50.5072479559      -25.5189120171        8.0904652647  MEMB      103             0.0000000000
     11923       103  POPC      H10Y           51.7438327897      -26.7123331649        7.8937054042  MEMB      103             0.0000000000
     11924       103  POPC      C311           51.0900557032      -25.8534444728        6.1004941838  MEMB      103             0.0000000000
     11925       103  POPC      H11X           50.5357410252      -24.9338938806        5.8150417319  MEMB      103             0.0000000000
     11926       103  POPC      H11Y           50.4400090652      -26.7441022241        5.9645199541  MEMB      103             0.0000000000
     11927       103  POPC      C312           52.3020838405      -26.0612575104        5.1153166771  MEMB      103             0.0000000000
     11928       103  POPC      H12X           52.7820271160      -27.0137897438        5.4262150350  MEMB      103             0.0000000000
     11929       103  POPC      H12Y           53.0371393817      -25.2352123504        5.2233158512  MEMB      103             0.0000000000
     11930       103  POPC      C313           51.8693996969      -26.2897555796        3.6314211531  MEMB      103             0.0000000000
     11931       103  POPC      H13X           51.3566217349      -27.2686598088        3.5168512773  MEMB      103             0.0000000000
     11932       103  POPC      H13Y           52.7518553428      -26.4843511600        2.9851035858  MEMB      103             0.0000000000
     11933       103  POPC      C314           51.0305028075      -25.2595169307        2.9558252531  MEMB      103             0.0000000000
     11934       103  POPC      H14X           50.1455545843      -25.1379327160        3.6164358358  MEMB      103             0.0000000000
     11935       103  POPC      H14Y           50.6534806926      -25.5088150070        1.9409236843  MEMB      103             0.0000000000
     11936       103  POPC      C315           51.6015378355      -23.7889855838        2.8090660281  MEMB      103             0.0000000000
     11937       103  POPC      H15X           52.1869976606      -23.5150710668        3.7126854413  MEMB      103             0.0000000000
     11938       103  POPC      H15Y           50.6757318583      -23.1757082513        2.7759703277  MEMB      103             0.0000000000
     11939       103  POPC      C316           52.4876619638      -23.5108733307        1.5443340317  MEMB      103             0.0000000000
     11940       103  POPC      H16X           53.1497463133      -22.6432426215        1.7521385203  MEMB      103             0.0000000000
     11941       103  POPC      H16Y           51.8535750373      -23.1393566899        0.7111296404  MEMB      103             0.0000000000
     11942       103  POPC      H16Z           53.1022163533      -24.4046101340        1.3037558254  MEMB      103             0.0000000000
     11943       104  POPC      N              34.7447706354       42.7384762629       21.1970812861  MEMB      104             0.0000000000
     11944       104  POPC      C12            33.7066320388       43.5217051824       20.3230045275  MEMB      104             0.0000000000
     11945       104  POPC      H12A           34.2528541130       44.4140107603       20.0549890780  MEMB      104             0.0000000000
     11946       104  POPC      H12B           32.8756539668       43.8549797601       20.9269941780  MEMB      104             0.0000000000
     11947       104  POPC      C13            34.1594006435       41.3367297766       21.4266994707  MEMB      104             0.0000000000
     11948       104  POPC      H13A           34.2498732900       40.7825783937       20.5041318721  MEMB      104             0.0000000000
     11949       104  POPC      H13B           34.7674994585       40.8437397097       22.1707268705  MEMB      104             0.0000000000
     11950       104  POPC      H13C           33.1223463104       41.3735238380       21.7259727184  MEMB      104             0.0000000000
     11951       104  POPC      C14            36.0752984520       42.5774472333       20.4539932596  MEMB      104             0.0000000000
     11952       104  POPC      H14A           35.8314590123       42.1198118439       19.5066220490  MEMB      104             0.0000000000
     11953       104  POPC      H14B           36.5368200387       43.5531713294       20.4171129516  MEMB      104             0.0000000000
     11954       104  POPC      H14C           36.6977058635       41.9323294833       21.0563488224  MEMB      104             0.0000000000
     11955       104  POPC      C15            34.8303398540       43.4384808562       22.4937345363  MEMB      104             0.0000000000
     11956       104  POPC      H15A           35.2144123830       42.8348685610       23.3027714921  MEMB      104             0.0000000000
     11957       104  POPC      H15B           33.9329058486       43.9161826138       22.8581700084  MEMB      104             0.0000000000
     11958       104  POPC      H15C           35.5076896763       44.2767635556       22.4238838634  MEMB      104             0.0000000000
     11959       104  POPC      C11            33.1647917133       42.8799275777       18.9473423285  MEMB      104             0.0000000000
     11960       104  POPC      H11A           32.6300415643       43.7418624418       18.4940966649  MEMB      104             0.0000000000
     11961       104  POPC      H11B           32.4778654080       42.0916704667       19.3229802257  MEMB      104             0.0000000000
     11962       104  POPC      P              33.5402467642       41.6155428710       16.8106937443  MEMB      104             0.0000000000
     11963       104  POPC      O13            32.8170963484       42.6302387181       16.0157851264  MEMB      104             0.0000000000
     11964       104  POPC      O14            32.7617455902       40.4888512906       17.3083735646  MEMB      104             0.0000000000
     11965       104  POPC      O12            34.1761094987       42.3772816329       18.0932303470  MEMB      104             0.0000000000
     11966       104  POPC      O11            34.7186760582       41.1236661876       15.9300618086  MEMB      104             0.0000000000
     11967       104  POPC      C1             35.8224462543       40.4690893790       16.6118888195  MEMB      104             0.0000000000
     11968       104  POPC      HA             35.6416740640       39.4229550478       16.9393721543  MEMB      104             0.0000000000
     11969       104  POPC      HB             36.2354458969       40.9268760575       17.5361093763  MEMB      104             0.0000000000
     11970       104  POPC      C2             36.9786686146       40.4045952156       15.4772304113  MEMB      104             0.0000000000
     11971       104  POPC      HS             37.8367639296       39.8619616841       15.9283865839  MEMB      104             0.0000000000
     11972       104  POPC      O21            37.3548622760       41.7195656276       15.1534314756  MEMB      104             0.0000000000
     11973       104  POPC      C21            38.1788419448       42.3882427783       16.0243667097  MEMB      104             0.0000000000
     11974       104  POPC      O22            38.7420854013       41.9030785574       16.9775495596  MEMB      104             0.0000000000
     11975       104  POPC      C22            38.4742800712       43.7729673529       15.4561536107  MEMB      104             0.0000000000
     11976       104  POPC      H2R            38.9909829576       44.3637910303       16.2424529577  MEMB      104             0.0000000000
     11977       104  POPC      H2S            37.5197903296       44.2792886542       15.1974861282  MEMB      104             0.0000000000
     11978       104  POPC      C3             36.6274693256       39.5871803739       14.1312001388  MEMB      104             0.0000000000
     11979       104  POPC      HX             36.2929429754       38.5793971266       14.4579812563  MEMB      104             0.0000000000
     11980       104  POPC      HY             37.5588551347       39.5151198972       13.5298278070  MEMB      104             0.0000000000
     11981       104  POPC      O31            35.5687561049       40.2940380063       13.3749955510  MEMB      104             0.0000000000
     11982       104  POPC      C31            35.9512177718       41.0333523213       12.3359375187  MEMB      104             0.0000000000
     11983       104  POPC      O32            36.9313284812       40.9576502494       11.6374769161  MEMB      104             0.0000000000
     11984       104  POPC      C32            34.7280752076       41.9356832905       12.0197455790  MEMB      104             0.0000000000
     11985       104  POPC      H2X            35.0050405158       42.8051457308       11.3859899962  MEMB      104             0.0000000000
     11986       104  POPC      H2Y            34.1961624461       42.3411867849       12.9068512350  MEMB      104             0.0000000000
     11987       104  POPC      C23            39.4122997681       43.6606804368       14.1960390754  MEMB      104             0.0000000000
     11988       104  POPC      H3R            39.0456787676       42.9224663297       13.4510892999  MEMB      104             0.0000000000
     11989       104  POPC      H3S            40.3346491026       43.2544295079       14.6635359895  MEMB      104             0.0000000000
     11990       104  POPC      C24            39.7676076745       44.9572323425       13.5466984290  MEMB      104             0.0000000000
     11991       104  POPC      H4R            40.6888912616       44.8003892653       12.9459012327  MEMB      104             0.0000000000
     11992       104  POPC      H4S            39.9142129163       45.7788913865       14.2799819117  MEMB      104             0.0000000000
     11993       104  POPC      C25            38.7126359717       45.5565507599       12.6250584991  MEMB      104             0.0000000000
     11994       104  POPC      H5R            39.3548842945       46.2681730844       12.0634256577  MEMB      104             0.0000000000
     11995       104  POPC      H5S            37.9344784980       46.0858246964       13.2155336971  MEMB      104             0.0000000000
     11996       104  POPC      C26            38.2802779829       44.6151185431       11.5012411024  MEMB      104             0.0000000000
     11997       104  POPC      H6R            37.8267205477       43.7909668872       12.0923253292  MEMB      104             0.0000000000
     11998       104  POPC      H6S            39.1940284190       44.2983541632       10.9543945541  MEMB      104             0.0000000000
     11999       104  POPC      C27            37.3244595405       45.2029240972       10.4716181223  MEMB      104             0.0000000000
     12000       104  POPC      H7R            37.7241806507       46.2169120837       10.2562765220  MEMB      104             0.0000000000
     12001       104  POPC      H7S            36.4145590468       45.3697998894       11.0868861435  MEMB      104             0.0000000000
     12002       104  POPC      C28            36.9684449123       44.3307936566        9.3059182705  MEMB      104             0.0000000000
     12003       104  POPC      H8R            36.0035724127       44.6914520732        8.8896640553  MEMB      104             0.0000000000
     12004       104  POPC      H8S            36.7148557809       43.3543527405        9.7712961448  MEMB      104             0.0000000000
     12005       104  POPC      C29            38.0776055001       44.1741306103        8.2216027017  MEMB      104             0.0000000000
     12006       104  POPC      H91            39.1254895489       44.2513901661        8.5471327866  MEMB      104             0.0000000000
     12007       104  POPC      C210           37.7534211367       43.9066538462        6.9330398231  MEMB      104             0.0000000000
     12008       104  POPC      H101           38.5825411257       43.4426085680        6.3787642105  MEMB      104             0.0000000000
     12009       104  POPC      C211           36.3310837459       43.6534088124        6.3693644623  MEMB      104             0.0000000000
     12010       104  POPC      H11R           35.5421506197       43.6400339837        7.1514945078  MEMB      104             0.0000000000
     12011       104  POPC      H11S           36.3829327437       42.6833932489        5.8301964666  MEMB      104             0.0000000000
     12012       104  POPC      C212           35.8186979850       44.7136106223        5.4337070327  MEMB      104             0.0000000000
     12013       104  POPC      H12R           35.8526522890       45.7604769867        5.8041647590  MEMB      104             0.0000000000
     12014       104  POPC      H12S           34.7382425455       44.5930535650        5.2047900408  MEMB      104             0.0000000000
     12015       104  POPC      C213           36.3709700152       44.6674588147        4.0317639583  MEMB      104             0.0000000000
     12016       104  POPC      H13R           36.2932335697       43.6503736310        3.5915187367  MEMB      104             0.0000000000
     12017       104  POPC      H13S           37.4227599106       45.0111335227        4.1314967394  MEMB      104             0.0000000000
     12018       104  POPC      C214           35.7126100134       45.6480893153        3.0751484656  MEMB      104             0.0000000000
     12019       104  POPC      H14R           35.6791396574       46.5733936710        3.6891616676  MEMB      104             0.0000000000
     12020       104  POPC      H14S           34.6659161286       45.3058989924        2.9279792341  MEMB      104             0.0000000000
     12021       104  POPC      C215           36.5056069630       45.8942152830        1.7455138994  MEMB      104             0.0000000000
     12022       104  POPC      H15R           37.5290988709       45.8662795587        2.1767968754  MEMB      104             0.0000000000
     12023       104  POPC      H15S           36.2297450241       46.9088491413        1.3867116363  MEMB      104             0.0000000000
     12024       104  POPC      C216           36.2910450225       44.9344624984        0.6856414356  MEMB      104             0.0000000000
     12025       104  POPC      H16R           35.2123145424       44.9640696348        0.4214725153  MEMB      104             0.0000000000
     12026       104  POPC      H16S           36.5043494062       43.8609475155        0.8763974162  MEMB      104             0.0000000000
     12027       104  POPC      C217           37.2279012235       45.1622110451       -0.5334369952  MEMB      104             0.0000000000
     12028       104  POPC      H17R           37.6120131816       46.2035874021       -0.4853302336  MEMB      104             0.0000000000
     12029       104  POPC      H17S           36.6201242477       44.9967180849       -1.4486100373  MEMB      104             0.0000000000
     12030       104  POPC      C218           38.4017647047       44.1616040645       -0.6786680149  MEMB      104             0.0000000000
     12031       104  POPC      H18R           39.3131648512       44.6210689885       -1.1174892446  MEMB      104             0.0000000000
     12032       104  POPC      H18S           38.1466084289       43.2697245927       -1.2900339918  MEMB      104             0.0000000000
     12033       104  POPC      H18T           38.6925132054       43.7115070496        0.2945731772  MEMB      104             0.0000000000
     12034       104  POPC      C33            33.7687521020       40.9728853546       11.1047888721  MEMB      104             0.0000000000
     12035       104  POPC      H3X            33.3774392642       40.1357001861       11.7214868562  MEMB      104             0.0000000000
     12036       104  POPC      H3Y            34.4129561180       40.6416851753       10.2623942128  MEMB      104             0.0000000000
     12037       104  POPC      C34            32.6777926546       41.8369734188       10.4106400637  MEMB      104             0.0000000000
     12038       104  POPC      H4X            31.9551820048       42.3355405083       11.0915111687  MEMB      104             0.0000000000
     12039       104  POPC      H4Y            32.1077523575       41.1919623268        9.7082610964  MEMB      104             0.0000000000
     12040       104  POPC      C35            33.2788686244       42.9331443930        9.5012897973  MEMB      104             0.0000000000
     12041       104  POPC      H5X            34.3648209555       42.7951858280        9.3115649739  MEMB      104             0.0000000000
     12042       104  POPC      H5Y            33.2718299573       43.8728216571       10.0939772236  MEMB      104             0.0000000000
     12043       104  POPC      C36            32.6754929063       43.1139467364        8.0752246975  MEMB      104             0.0000000000
     12044       104  POPC      H6X            32.9565849409       44.1137895791        7.6807348033  MEMB      104             0.0000000000
     12045       104  POPC      H6Y            31.5648019473       43.1361960406        8.0890741433  MEMB      104             0.0000000000
     12046       104  POPC      C37            33.2185626178       41.9626710694        7.1816083462  MEMB      104             0.0000000000
     12047       104  POPC      H7X            32.9212267064       40.9702285219        7.5828198138  MEMB      104             0.0000000000
     12048       104  POPC      H7Y            34.3287658525       41.9840543148        7.1453791328  MEMB      104             0.0000000000
     12049       104  POPC      C38            32.6163864637       42.0225190973        5.8125812993  MEMB      104             0.0000000000
     12050       104  POPC      H8X            32.9369050501       42.9333514421        5.2630602796  MEMB      104             0.0000000000
     12051       104  POPC      H8Y            31.5100061105       42.0624740978        5.9055692886  MEMB      104             0.0000000000
     12052       104  POPC      C39            33.0615861545       40.8550311641        4.9860556128  MEMB      104             0.0000000000
     12053       104  POPC      H9X            32.4393470652       39.9672863739        5.2290551159  MEMB      104             0.0000000000
     12054       104  POPC      H9Y            34.0765933175       40.5335443268        5.3034318971  MEMB      104             0.0000000000
     12055       104  POPC      C310           32.9256062098       41.1114689105        3.4963891318  MEMB      104             0.0000000000
     12056       104  POPC      H10X           33.7675374648       41.7655824845        3.1839660584  MEMB      104             0.0000000000
     12057       104  POPC      H10Y           31.9973910392       41.6650388858        3.2389057290  MEMB      104             0.0000000000
     12058       104  POPC      C311           32.9892498478       39.8807596430        2.5843541748  MEMB      104             0.0000000000
     12059       104  POPC      H11X           32.1405457114       39.2586654981        2.9407537512  MEMB      104             0.0000000000
     12060       104  POPC      H11Y           33.9150299571       39.3137574151        2.8204908500  MEMB      104             0.0000000000
     12061       104  POPC      C312           32.7336068208       40.2253564991        1.1093791880  MEMB      104             0.0000000000
     12062       104  POPC      H12X           31.7783675635       40.7820577882        1.0001848796  MEMB      104             0.0000000000
     12063       104  POPC      H12Y           32.6282533143       39.2230801790        0.6417643960  MEMB      104             0.0000000000
     12064       104  POPC      C313           33.8817282098       40.9046372392        0.3550693314  MEMB      104             0.0000000000
     12065       104  POPC      H13X           33.9943064984       41.9228428196        0.7850735429  MEMB      104             0.0000000000
     12066       104  POPC      H13Y           33.5415325842       40.9423036183       -0.7018938031  MEMB      104             0.0000000000
     12067       104  POPC      C314           35.1898515165       40.1694583236        0.3691566752  MEMB      104             0.0000000000
     12068       104  POPC      H14X           35.0915487819       39.2499727972       -0.2466380388  MEMB      104             0.0000000000
     12069       104  POPC      H14Y           35.4432023105       39.8925318379        1.4148355695  MEMB      104             0.0000000000
     12070       104  POPC      C315           36.5168308368       40.8635263141       -0.1418701023  MEMB      104             0.0000000000
     12071       104  POPC      H15X           36.7617588809       41.6727680661        0.5788655413  MEMB      104             0.0000000000
     12072       104  POPC      H15Y           36.3113529307       41.2437993794       -1.1653395653  MEMB      104             0.0000000000
     12073       104  POPC      C316           37.6270075697       39.8656376250       -0.1871390016  MEMB      104             0.0000000000
     12074       104  POPC      H16X           38.4462069902       40.4070922498       -0.7068117855  MEMB      104             0.0000000000
     12075       104  POPC      H16Y           37.2411814995       39.0055560740       -0.7751169141  MEMB      104             0.0000000000
     12076       104  POPC      H16Z           37.9314829424       39.5137626930        0.8217224855  MEMB      104             0.0000000000
     12077       105  POPC      N             -28.5547056597       42.9579411556       21.1337258273  MEMB      105             0.0000000000
     12078       105  POPC      C12           -28.0690373659       41.8412828612       20.1528038002  MEMB      105             0.0000000000
     12079       105  POPC      H12A          -28.5647651615       40.9201755937       20.4215331487  MEMB      105             0.0000000000
     12080       105  POPC      H12B          -27.0108403989       41.7431128161       20.3451105146  MEMB      105             0.0000000000
     12081       105  POPC      C13           -28.2849613118       44.3513977815       20.7554587485  MEMB      105             0.0000000000
     12082       105  POPC      H13A          -27.2409872860       44.4524993100       20.4979773441  MEMB      105             0.0000000000
     12083       105  POPC      H13B          -28.7516502488       44.6123649022       19.8171104884  MEMB      105             0.0000000000
     12084       105  POPC      H13C          -28.4963738257       45.0753622083       21.5284919395  MEMB      105             0.0000000000
     12085       105  POPC      C14           -29.9817161455       42.7859316414       21.1867264087  MEMB      105             0.0000000000
     12086       105  POPC      H14A          -30.4230401267       43.1529590993       22.1015620186  MEMB      105             0.0000000000
     12087       105  POPC      H14B          -30.3847557076       43.2771559347       20.3134237172  MEMB      105             0.0000000000
     12088       105  POPC      H14C          -30.2004415251       41.7292942924       21.2322964181  MEMB      105             0.0000000000
     12089       105  POPC      C15           -27.9255514855       42.7078924811       22.5162037786  MEMB      105             0.0000000000
     12090       105  POPC      H15A          -28.2390760848       43.4981903217       23.1821856588  MEMB      105             0.0000000000
     12091       105  POPC      H15B          -26.8552302342       42.7873753749       22.3958091617  MEMB      105             0.0000000000
     12092       105  POPC      H15C          -28.1881592722       41.7514454627       22.9435752975  MEMB      105             0.0000000000
     12093       105  POPC      C11           -28.3007310205       42.0438588442       18.6479096540  MEMB      105             0.0000000000
     12094       105  POPC      H11A          -27.6747666595       41.2803111520       18.1385131565  MEMB      105             0.0000000000
     12095       105  POPC      H11B          -27.8708361775       43.0464615644       18.4374357221  MEMB      105             0.0000000000
     12096       105  POPC      P             -30.1703236706       42.4025415450       16.8556817865  MEMB      105             0.0000000000
     12097       105  POPC      O13           -31.5034679757       41.7536635488       16.5816416751  MEMB      105             0.0000000000
     12098       105  POPC      O14           -29.1024165687       42.1456292148       15.8856673293  MEMB      105             0.0000000000
     12099       105  POPC      O12           -29.7224052429       41.9037887079       18.2790515766  MEMB      105             0.0000000000
     12100       105  POPC      O11           -30.4376213812       43.9389938778       17.0051294119  MEMB      105             0.0000000000
     12101       105  POPC      C1            -31.3802282425       44.5823014652       17.8415696965  MEMB      105             0.0000000000
     12102       105  POPC      HA            -30.8702042066       45.2219031740       18.5933051282  MEMB      105             0.0000000000
     12103       105  POPC      HB            -31.9197801527       43.8127798488       18.4340570045  MEMB      105             0.0000000000
     12104       105  POPC      C2            -32.3762403971       45.4863431357       17.1464543187  MEMB      105             0.0000000000
     12105       105  POPC      HS            -33.1162298271       45.6020052460       17.9670387829  MEMB      105             0.0000000000
     12106       105  POPC      O21           -32.9243978472       44.9117598304       15.9696952759  MEMB      105             0.0000000000
     12107       105  POPC      C21           -34.2232715843       44.7086007866       15.8668278719  MEMB      105             0.0000000000
     12108       105  POPC      O22           -35.0113868545       44.9829214389       16.7258873121  MEMB      105             0.0000000000
     12109       105  POPC      C22           -34.5304541686       44.0926975974       14.5489691175  MEMB      105             0.0000000000
     12110       105  POPC      H2R           -34.7574240544       44.9388023605       13.8656587212  MEMB      105             0.0000000000
     12111       105  POPC      H2S           -35.4824703649       43.5303005041       14.6571169205  MEMB      105             0.0000000000
     12112       105  POPC      C3            -31.7796389639       46.8438466679       16.7106750549  MEMB      105             0.0000000000
     12113       105  POPC      HX            -31.3659693814       47.3122995314       17.6292339720  MEMB      105             0.0000000000
     12114       105  POPC      HY            -32.5988817474       47.5667945424       16.5094071747  MEMB      105             0.0000000000
     12115       105  POPC      O31           -30.8046094877       46.6652055101       15.6806710199  MEMB      105             0.0000000000
     12116       105  POPC      C31           -31.1899336708       46.8862411669       14.4458207455  MEMB      105             0.0000000000
     12117       105  POPC      O32           -32.3253104934       47.3017643744       14.0451701214  MEMB      105             0.0000000000
     12118       105  POPC      C32           -29.9685159437       46.6695823247       13.4929041585  MEMB      105             0.0000000000
     12119       105  POPC      H2X           -29.6356770903       45.6137677380       13.5866855691  MEMB      105             0.0000000000
     12120       105  POPC      H2Y           -29.1720338240       47.3462968666       13.8697262721  MEMB      105             0.0000000000
     12121       105  POPC      C23           -33.3497165300       43.1880336496       14.0273825808  MEMB      105             0.0000000000
     12122       105  POPC      H3R           -33.2786687744       42.2967584235       14.6868535060  MEMB      105             0.0000000000
     12123       105  POPC      H3S           -32.3924746076       43.7222743044       13.8468389849  MEMB      105             0.0000000000
     12124       105  POPC      C24           -33.7374633827       42.5445135987       12.6986904053  MEMB      105             0.0000000000
     12125       105  POPC      H4R           -33.9207038895       43.3625492674       11.9696077787  MEMB      105             0.0000000000
     12126       105  POPC      H4S           -34.6557872100       41.9208374158       12.7437508941  MEMB      105             0.0000000000
     12127       105  POPC      C25           -32.5859120371       41.7918865834       12.0615512079  MEMB      105             0.0000000000
     12128       105  POPC      H5R           -32.5450415431       40.7928342655       12.5458495409  MEMB      105             0.0000000000
     12129       105  POPC      H5S           -31.6162146804       42.2798910811       12.2978976581  MEMB      105             0.0000000000
     12130       105  POPC      C26           -32.6175098862       41.6229342104       10.5561365175  MEMB      105             0.0000000000
     12131       105  POPC      H6R           -31.7395477538       41.0044367891       10.2715938727  MEMB      105             0.0000000000
     12132       105  POPC      H6S           -32.4734126108       42.6549420951       10.1707577038  MEMB      105             0.0000000000
     12133       105  POPC      C27           -33.8783658888       41.0687271758        9.9673114457  MEMB      105             0.0000000000
     12134       105  POPC      H7R           -34.7022221615       41.7926532355       10.1448303246  MEMB      105             0.0000000000
     12135       105  POPC      H7S           -34.1393815499       40.0789078819       10.3991095125  MEMB      105             0.0000000000
     12136       105  POPC      C28           -33.7718106677       40.9276209141        8.4818919823  MEMB      105             0.0000000000
     12137       105  POPC      H8R           -34.7886792288       40.5473741852        8.2458570825  MEMB      105             0.0000000000
     12138       105  POPC      H8S           -33.1164333539       40.0674449468        8.2271396234  MEMB      105             0.0000000000
     12139       105  POPC      C29           -33.4992819767       42.1526534138        7.5904716111  MEMB      105             0.0000000000
     12140       105  POPC      H91           -34.0317451656       43.0885054446        7.8155580474  MEMB      105             0.0000000000
     12141       105  POPC      C210          -32.7733675320       42.1619868841        6.4617616883  MEMB      105             0.0000000000
     12142       105  POPC      H101          -32.5664621845       43.1262539040        5.9745462045  MEMB      105             0.0000000000
     12143       105  POPC      C211          -32.0436658503       41.0838206770        5.8151814643  MEMB      105             0.0000000000
     12144       105  POPC      H11R          -31.4059039636       40.5673393063        6.5640660815  MEMB      105             0.0000000000
     12145       105  POPC      H11S          -31.2627321641       41.4519815860        5.1159526140  MEMB      105             0.0000000000
     12146       105  POPC      C212          -32.8430424242       39.8328027569        5.3676153303  MEMB      105             0.0000000000
     12147       105  POPC      H12R          -33.4018483132       39.4326583627        6.2405083259  MEMB      105             0.0000000000
     12148       105  POPC      H12S          -32.2617582356       38.9921859098        4.9319634840  MEMB      105             0.0000000000
     12149       105  POPC      C213          -33.9207861592       40.0916815302        4.2717173221  MEMB      105             0.0000000000
     12150       105  POPC      H13R          -34.4763907456       41.0347953559        4.4618769605  MEMB      105             0.0000000000
     12151       105  POPC      H13S          -34.4796941673       39.1493317683        4.0875451813  MEMB      105             0.0000000000
     12152       105  POPC      C214          -33.2975164788       40.5570751193        2.8583746193  MEMB      105             0.0000000000
     12153       105  POPC      H14R          -32.5376960704       39.8037762625        2.5591511730  MEMB      105             0.0000000000
     12154       105  POPC      H14S          -32.8045949112       41.5332704060        3.0543138440  MEMB      105             0.0000000000
     12155       105  POPC      C215          -34.3380616849       40.5552250878        1.7758731271  MEMB      105             0.0000000000
     12156       105  POPC      H15R          -35.0534689624       41.3874624073        1.9487726706  MEMB      105             0.0000000000
     12157       105  POPC      H15S          -34.8804525872       39.5892047075        1.8591637137  MEMB      105             0.0000000000
     12158       105  POPC      C216          -33.5332736747       40.7903933061        0.4172538723  MEMB      105             0.0000000000
     12159       105  POPC      H16R          -33.0253062190       39.8484735647        0.1187956048  MEMB      105             0.0000000000
     12160       105  POPC      H16S          -32.8121908154       41.6355863984        0.4202870886  MEMB      105             0.0000000000
     12161       105  POPC      C217          -34.4638212585       41.0363669249       -0.7643925279  MEMB      105             0.0000000000
     12162       105  POPC      H17R          -34.8626033511       42.0549767441       -0.5701560635  MEMB      105             0.0000000000
     12163       105  POPC      H17S          -35.4100304573       40.4549643410       -0.7330775143  MEMB      105             0.0000000000
     12164       105  POPC      C218          -33.7954423129       40.8754856061       -2.0903804115  MEMB      105             0.0000000000
     12165       105  POPC      H18R          -34.4523899083       40.3180297409       -2.7917962400  MEMB      105             0.0000000000
     12166       105  POPC      H18S          -32.8646041904       40.2713379364       -2.1439294275  MEMB      105             0.0000000000
     12167       105  POPC      H18T          -33.6242183815       41.8589366814       -2.5780547383  MEMB      105             0.0000000000
     12168       105  POPC      C33           -30.4394831760       47.0392750643       12.1254614611  MEMB      105             0.0000000000
     12169       105  POPC      H3X           -30.5923594558       48.1369539195       12.0476722485  MEMB      105             0.0000000000
     12170       105  POPC      H3Y           -31.4020747985       46.5506811784       11.8627558864  MEMB      105             0.0000000000
     12171       105  POPC      C34           -29.4744289537       46.5033958057       11.0845187784  MEMB      105             0.0000000000
     12172       105  POPC      H4X           -29.3773697825       45.4364275755       11.3785931492  MEMB      105             0.0000000000
     12173       105  POPC      H4Y           -28.4585438063       46.9065615761       11.2839074899  MEMB      105             0.0000000000
     12174       105  POPC      C35           -30.0096754238       46.8153042572        9.7185328120  MEMB      105             0.0000000000
     12175       105  POPC      H5X           -29.3205476395       47.4302352005        9.1010508469  MEMB      105             0.0000000000
     12176       105  POPC      H5Y           -30.8872072265       47.4802229439        9.8673342032  MEMB      105             0.0000000000
     12177       105  POPC      C36           -30.3305960358       45.4425392525        8.9733715615  MEMB      105             0.0000000000
     12178       105  POPC      H6X           -31.0569040574       45.5731387661        8.1428645248  MEMB      105             0.0000000000
     12179       105  POPC      H6Y           -30.6763477783       44.7138316380        9.7374143825  MEMB      105             0.0000000000
     12180       105  POPC      C37           -29.1658455210       44.6766338132        8.4181885555  MEMB      105             0.0000000000
     12181       105  POPC      H7X           -28.6755590975       44.0419547874        9.1870345239  MEMB      105             0.0000000000
     12182       105  POPC      H7Y           -28.4300620584       45.3921367524        7.9927490259  MEMB      105             0.0000000000
     12183       105  POPC      C38           -29.6640484784       43.5056805342        7.5330269820  MEMB      105             0.0000000000
     12184       105  POPC      H8X           -30.3237735994       43.8451744834        6.7060879159  MEMB      105             0.0000000000
     12185       105  POPC      H8Y           -30.3608713246       42.9189951409        8.1690763731  MEMB      105             0.0000000000
     12186       105  POPC      C39           -28.5620592586       42.5771266503        7.0144157482  MEMB      105             0.0000000000
     12187       105  POPC      H9X           -28.9634950380       41.8405639692        6.2859614695  MEMB      105             0.0000000000
     12188       105  POPC      H9Y           -28.1870527880       41.9603291657        7.8589582822  MEMB      105             0.0000000000
     12189       105  POPC      C310          -27.3592954702       43.2901318219        6.4476155085  MEMB      105             0.0000000000
     12190       105  POPC      H10X          -26.5060909154       42.5788300407        6.4273056782  MEMB      105             0.0000000000
     12191       105  POPC      H10Y          -26.9807390771       44.0161901403        7.1985182049  MEMB      105             0.0000000000
     12192       105  POPC      C311          -27.6100760847       44.1000563726        5.1812865422  MEMB      105             0.0000000000
     12193       105  POPC      H11X          -26.6711710743       44.5265887430        4.7679478754  MEMB      105             0.0000000000
     12194       105  POPC      H11Y          -28.2097093902       44.9751970499        5.5112704574  MEMB      105             0.0000000000
     12195       105  POPC      C312          -28.3876809356       43.3237895655        4.0348183167  MEMB      105             0.0000000000
     12196       105  POPC      H12X          -29.4434145304       43.1673681091        4.3434921134  MEMB      105             0.0000000000
     12197       105  POPC      H12Y          -27.9411633631       42.3162471349        3.8941024949  MEMB      105             0.0000000000
     12198       105  POPC      C313          -28.1691151296       44.0755404666        2.7420878636  MEMB      105             0.0000000000
     12199       105  POPC      H13X          -28.6363944712       43.5253491023        1.8975406437  MEMB      105             0.0000000000
     12200       105  POPC      H13Y          -27.1108236743       44.3366680858        2.5272558733  MEMB      105             0.0000000000
     12201       105  POPC      C314          -28.8880369469       45.4358449936        2.6412311399  MEMB      105             0.0000000000
     12202       105  POPC      H14X          -28.7029212627       45.8492924986        1.6267780224  MEMB      105             0.0000000000
     12203       105  POPC      H14Y          -28.3552582425       46.1619685536        3.2917782083  MEMB      105             0.0000000000
     12204       105  POPC      C315          -30.3650192633       45.4021512692        2.9937285129  MEMB      105             0.0000000000
     12205       105  POPC      H15X          -30.4796249957       45.4318317196        4.0984031749  MEMB      105             0.0000000000
     12206       105  POPC      H15Y          -30.8462977470       44.4226185089        2.7858639614  MEMB      105             0.0000000000
     12207       105  POPC      C316          -31.2390982643       46.4414759051        2.3651010947  MEMB      105             0.0000000000
     12208       105  POPC      H16X          -30.9596721456       47.4461601347        2.7483134650  MEMB      105             0.0000000000
     12209       105  POPC      H16Y          -32.3172020922       46.2941775223        2.5894146408  MEMB      105             0.0000000000
     12210       105  POPC      H16Z          -31.2423584464       46.3836500676        1.2556111371  MEMB      105             0.0000000000
     12211       106  POPC      N             -11.1444286356       54.7657820801       20.6260801052  MEMB      106             0.0000000000
     12212       106  POPC      C12           -10.0026056055       55.2532395419       19.6982717373  MEMB      106             0.0000000000
     12213       106  POPC      H12A           -9.3464707255       54.4242516968       19.4776674835  MEMB      106             0.0000000000
     12214       106  POPC      H12B           -9.3655517094       55.9983915842       20.1513839153  MEMB      106             0.0000000000
     12215       106  POPC      C13           -11.9211221781       53.6128757524       20.0099490721  MEMB      106             0.0000000000
     12216       106  POPC      H13A          -12.6810363280       53.3443512394       20.7288545507  MEMB      106             0.0000000000
     12217       106  POPC      H13B          -12.3631505726       54.0702148322       19.1371078278  MEMB      106             0.0000000000
     12218       106  POPC      H13C          -11.2316640276       52.8244716448       19.7463844026  MEMB      106             0.0000000000
     12219       106  POPC      C14           -10.5161805071       54.1743860884       21.9788459972  MEMB      106             0.0000000000
     12220       106  POPC      H14A           -9.9926449335       54.9107433424       22.5705285038  MEMB      106             0.0000000000
     12221       106  POPC      H14B          -11.3523631337       53.7946245932       22.5471589421  MEMB      106             0.0000000000
     12222       106  POPC      H14C           -9.9219759324       53.3057302503       21.7364463249  MEMB      106             0.0000000000
     12223       106  POPC      C15           -12.0303188282       55.8374497335       21.0667075502  MEMB      106             0.0000000000
     12224       106  POPC      H15A          -12.6991945710       56.1624735108       20.2835315531  MEMB      106             0.0000000000
     12225       106  POPC      H15B          -11.3494314110       56.6402921258       21.3080302626  MEMB      106             0.0000000000
     12226       106  POPC      H15C          -12.5214509761       55.6160010698       22.0027363209  MEMB      106             0.0000000000
     12227       106  POPC      C11           -10.4928877934       55.8922310281       18.3391810948  MEMB      106             0.0000000000
     12228       106  POPC      H11A          -11.2194278002       55.2054236874       17.8546644439  MEMB      106             0.0000000000
     12229       106  POPC      H11B           -9.5954366698       56.0666451219       17.7079267114  MEMB      106             0.0000000000
     12230       106  POPC      P             -11.3213063952       58.1050632453       17.4529122450  MEMB      106             0.0000000000
     12231       106  POPC      O13           -10.0920375116       58.5197814112       16.7649024960  MEMB      106             0.0000000000
     12232       106  POPC      O14           -12.2447768764       59.2299639095       17.7906836617  MEMB      106             0.0000000000
     12233       106  POPC      O12           -10.9706006974       57.1591803446       18.7036977172  MEMB      106             0.0000000000
     12234       106  POPC      O11           -12.2124619731       57.1316654679       16.5687683401  MEMB      106             0.0000000000
     12235       106  POPC      C1            -13.5045670957       56.9134178936       17.0533808288  MEMB      106             0.0000000000
     12236       106  POPC      HA            -14.2131833626       57.7030512853       16.7237400913  MEMB      106             0.0000000000
     12237       106  POPC      HB            -13.5025550757       56.8895387515       18.1641223440  MEMB      106             0.0000000000
     12238       106  POPC      C2            -14.1092198835       55.6490720336       16.4580841730  MEMB      106             0.0000000000
     12239       106  POPC      HS            -15.1331770024       55.4192402788       16.8227898750  MEMB      106             0.0000000000
     12240       106  POPC      O21           -13.1946655106       54.5727320776       16.6974215302  MEMB      106             0.0000000000
     12241       106  POPC      C21           -13.5929305798       53.2502135574       16.5457956996  MEMB      106             0.0000000000
     12242       106  POPC      O22           -14.7340936798       52.8799344971       16.5155454172  MEMB      106             0.0000000000
     12243       106  POPC      C22           -12.3686857685       52.3553916197       16.3202351181  MEMB      106             0.0000000000
     12244       106  POPC      H2R           -12.7812413798       51.3960058373       15.9411602006  MEMB      106             0.0000000000
     12245       106  POPC      H2S           -11.7598922680       52.3200477505       17.2489127419  MEMB      106             0.0000000000
     12246       106  POPC      C3            -14.3383799812       55.7404906849       14.9635373798  MEMB      106             0.0000000000
     12247       106  POPC      HX            -15.0444662630       56.5731450963       14.7575032226  MEMB      106             0.0000000000
     12248       106  POPC      HY            -14.6282573657       54.7464611315       14.5607997995  MEMB      106             0.0000000000
     12249       106  POPC      O31           -13.0817009736       56.0777902718       14.3345530418  MEMB      106             0.0000000000
     12250       106  POPC      C31           -12.9793675125       56.7448312688       13.1357572586  MEMB      106             0.0000000000
     12251       106  POPC      O32           -13.8919481044       56.8232270552       12.3060908568  MEMB      106             0.0000000000
     12252       106  POPC      C32           -11.4929224320       57.2081883930       12.8931009274  MEMB      106             0.0000000000
     12253       106  POPC      H2X           -10.8166559876       56.7795311072       13.6633201960  MEMB      106             0.0000000000
     12254       106  POPC      H2Y           -11.4765613258       58.2920781976       13.1364855957  MEMB      106             0.0000000000
     12255       106  POPC      C23           -11.4747259379       53.0510945465       15.2256424537  MEMB      106             0.0000000000
     12256       106  POPC      H3R           -10.9285217402       53.8312028799       15.7978429078  MEMB      106             0.0000000000
     12257       106  POPC      H3S           -12.0411846325       53.5682965987       14.4219338689  MEMB      106             0.0000000000
     12258       106  POPC      C24           -10.2653880022       52.3994846179       14.5421874663  MEMB      106             0.0000000000
     12259       106  POPC      H4R            -9.5495767367       51.9162569895       15.2410629743  MEMB      106             0.0000000000
     12260       106  POPC      H4S            -9.6454845245       53.0909033155       13.9322851894  MEMB      106             0.0000000000
     12261       106  POPC      C25           -10.6600571787       51.2178179585       13.6460067354  MEMB      106             0.0000000000
     12262       106  POPC      H5R           -11.1402021799       50.3385017629       14.1261999865  MEMB      106             0.0000000000
     12263       106  POPC      H5S            -9.7319625413       50.7709879291       13.2297086217  MEMB      106             0.0000000000
     12264       106  POPC      C26           -11.6092337713       51.5434085687       12.4235257273  MEMB      106             0.0000000000
     12265       106  POPC      H6R           -12.4325126644       52.2306640699       12.7137199783  MEMB      106             0.0000000000
     12266       106  POPC      H6S           -12.0020368910       50.5438049869       12.1392384290  MEMB      106             0.0000000000
     12267       106  POPC      C27           -10.9641916859       52.0058355416       11.1063618977  MEMB      106             0.0000000000
     12268       106  POPC      H7R           -10.1215003115       51.3430699023       10.8149276939  MEMB      106             0.0000000000
     12269       106  POPC      H7S           -10.5656859121       53.0330625390       11.2489067604  MEMB      106             0.0000000000
     12270       106  POPC      C28           -12.0029314518       52.1656135839        9.9276071815  MEMB      106             0.0000000000
     12271       106  POPC      H8R           -13.0553611638       52.2352034376       10.2767058706  MEMB      106             0.0000000000
     12272       106  POPC      H8S           -11.9431114342       51.1901878012        9.3991320801  MEMB      106             0.0000000000
     12273       106  POPC      C29           -11.6006772884       53.3197250890        9.0460382713  MEMB      106             0.0000000000
     12274       106  POPC      H91           -10.6535992109       53.2229179877        8.4949747820  MEMB      106             0.0000000000
     12275       106  POPC      C210          -12.3913788464       54.3469760615        8.6733151153  MEMB      106             0.0000000000
     12276       106  POPC      H101          -11.9742347841       55.0923842236        7.9802371152  MEMB      106             0.0000000000
     12277       106  POPC      C211          -13.8206289355       54.5330363329        9.0433568652  MEMB      106             0.0000000000
     12278       106  POPC      H11R          -13.8114492049       54.9273819947       10.0819753890  MEMB      106             0.0000000000
     12279       106  POPC      H11S          -14.3038605126       53.5366992159        9.1334714874  MEMB      106             0.0000000000
     12280       106  POPC      C212          -14.5406729977       55.4629342637        8.1122504125  MEMB      106             0.0000000000
     12281       106  POPC      H12R          -14.2246241033       56.4940386252        8.3791929662  MEMB      106             0.0000000000
     12282       106  POPC      H12S          -15.6302540242       55.3304608980        8.2842528287  MEMB      106             0.0000000000
     12283       106  POPC      C213          -14.1531751163       55.4053023122        6.5949998636  MEMB      106             0.0000000000
     12284       106  POPC      H13R          -13.0664933026       55.6148770686        6.4974186747  MEMB      106             0.0000000000
     12285       106  POPC      H13S          -14.7446631383       56.2497076380        6.1809434657  MEMB      106             0.0000000000
     12286       106  POPC      C214          -14.5697389490       54.1790747271        5.7938102506  MEMB      106             0.0000000000
     12287       106  POPC      H14R          -15.5995561258       53.9573899845        6.1468731410  MEMB      106             0.0000000000
     12288       106  POPC      H14S          -13.9113274463       53.3147525061        6.0256778684  MEMB      106             0.0000000000
     12289       106  POPC      C215          -14.3977476378       54.4298581911        4.2684406839  MEMB      106             0.0000000000
     12290       106  POPC      H15R          -13.3242008791       54.4519567414        3.9832562841  MEMB      106             0.0000000000
     12291       106  POPC      H15S          -14.8924949974       55.3888713339        4.0041687329  MEMB      106             0.0000000000
     12292       106  POPC      C216          -14.9635711482       53.3529841705        3.3806992577  MEMB      106             0.0000000000
     12293       106  POPC      H16R          -16.0624122868       53.2412092133        3.5005970516  MEMB      106             0.0000000000
     12294       106  POPC      H16S          -14.4805862899       52.3983997494        3.6803910773  MEMB      106             0.0000000000
     12295       106  POPC      C217          -14.7414481561       53.4045424277        1.8559651053  MEMB      106             0.0000000000
     12296       106  POPC      H17R          -13.6863829017       53.6837680303        1.6481393096  MEMB      106             0.0000000000
     12297       106  POPC      H17S          -15.3497446901       54.2805589673        1.5446909200  MEMB      106             0.0000000000
     12298       106  POPC      C218          -15.0937130417       52.1454380022        0.9976306891  MEMB      106             0.0000000000
     12299       106  POPC      H18R          -14.3601041182       51.3691333281        1.3033928005  MEMB      106             0.0000000000
     12300       106  POPC      H18S          -15.1220753158       52.5124671509       -0.0506088658  MEMB      106             0.0000000000
     12301       106  POPC      H18T          -16.1291685094       51.8409259620        1.2611168354  MEMB      106             0.0000000000
     12302       106  POPC      C33           -11.1078862952       56.7986398883       11.4856831342  MEMB      106             0.0000000000
     12303       106  POPC      H3X           -11.5441148426       55.7892064983       11.3273478769  MEMB      106             0.0000000000
     12304       106  POPC      H3Y            -9.9978560155       56.8419795009       11.4690874357  MEMB      106             0.0000000000
     12305       106  POPC      C34           -11.4336969233       57.8785672269       10.4342021036  MEMB      106             0.0000000000
     12306       106  POPC      H4X           -12.3176698667       58.5287269756       10.6079979388  MEMB      106             0.0000000000
     12307       106  POPC      H4Y           -11.6176323157       57.3472163689        9.4759982464  MEMB      106             0.0000000000
     12308       106  POPC      C35           -10.2928712814       58.9159080262       10.2449824430  MEMB      106             0.0000000000
     12309       106  POPC      H5X            -9.3969465404       58.3531363902        9.9059724622  MEMB      106             0.0000000000
     12310       106  POPC      H5Y           -10.0577494579       59.2150759844       11.2887914822  MEMB      106             0.0000000000
     12311       106  POPC      C36           -10.5706441288       60.1356059300        9.4639023839  MEMB      106             0.0000000000
     12312       106  POPC      H6X            -9.6484474019       60.7172155444        9.6774553410  MEMB      106             0.0000000000
     12313       106  POPC      H6Y           -11.4896513692       60.6404441784        9.8311697199  MEMB      106             0.0000000000
     12314       106  POPC      C37           -10.5275643164       60.0103748001        7.9890398081  MEMB      106             0.0000000000
     12315       106  POPC      H7X            -9.6994703473       59.3187133428        7.7241143938  MEMB      106             0.0000000000
     12316       106  POPC      H7Y           -10.2952634872       61.0018020507        7.5447091448  MEMB      106             0.0000000000
     12317       106  POPC      C38           -11.8637978000       59.5990360189        7.2070175089  MEMB      106             0.0000000000
     12318       106  POPC      H8X           -12.6222825049       60.3416143370        7.5350406349  MEMB      106             0.0000000000
     12319       106  POPC      H8Y           -12.1998977252       58.6043976925        7.5704081983  MEMB      106             0.0000000000
     12320       106  POPC      C39           -11.7477409968       59.5909009424        5.7740813494  MEMB      106             0.0000000000
     12321       106  POPC      H9X           -10.8073608695       59.0522330031        5.5294522810  MEMB      106             0.0000000000
     12322       106  POPC      H9Y           -11.5839047289       60.5597370244        5.2555883088  MEMB      106             0.0000000000
     12323       106  POPC      C310          -12.8662157098       58.7149760912        5.1376874269  MEMB      106             0.0000000000
     12324       106  POPC      H10X          -13.8744014949       59.1284315649        5.3543369626  MEMB      106             0.0000000000
     12325       106  POPC      H10Y          -12.7331789837       57.7988934109        5.7520283207  MEMB      106             0.0000000000
     12326       106  POPC      C311          -12.6443010036       58.4715317844        3.6116055555  MEMB      106             0.0000000000
     12327       106  POPC      H11X          -12.3642640519       59.4444958120        3.1541765401  MEMB      106             0.0000000000
     12328       106  POPC      H11Y          -13.6619158936       58.1579597740        3.2946620470  MEMB      106             0.0000000000
     12329       106  POPC      C312          -11.4327771595       57.5421425417        3.2645101293  MEMB      106             0.0000000000
     12330       106  POPC      H12X          -11.5434758979       56.6007739763        3.8440717964  MEMB      106             0.0000000000
     12331       106  POPC      H12Y          -10.6301769202       58.2207632006        3.6245481871  MEMB      106             0.0000000000
     12332       106  POPC      C313          -11.2781334036       57.1364095095        1.7456739644  MEMB      106             0.0000000000
     12333       106  POPC      H13X          -11.1470981525       58.1069008787        1.2209855581  MEMB      106             0.0000000000
     12334       106  POPC      H13Y          -12.1653131880       56.5777740993        1.3780319018  MEMB      106             0.0000000000
     12335       106  POPC      C314          -10.0019296066       56.3110128537        1.5446191336  MEMB      106             0.0000000000
     12336       106  POPC      H14X          -10.1078254332       55.4341144969        2.2185303452  MEMB      106             0.0000000000
     12337       106  POPC      H14Y           -9.1857338115       56.9686080392        1.9130144644  MEMB      106             0.0000000000
     12338       106  POPC      C315           -9.6145388330       55.8297381856        0.1823160033  MEMB      106             0.0000000000
     12339       106  POPC      H15X           -9.9003402794       56.6304381234       -0.5328889976  MEMB      106             0.0000000000
     12340       106  POPC      H15Y          -10.2710358677       54.9658668022       -0.0565557262  MEMB      106             0.0000000000
     12341       106  POPC      C316           -8.1692008409       55.3602741553       -0.0307453028  MEMB      106             0.0000000000
     12342       106  POPC      H16X           -7.5880174443       56.2133825754       -0.4415406679  MEMB      106             0.0000000000
     12343       106  POPC      H16Y           -8.1992758003       54.4890488564       -0.7194983227  MEMB      106             0.0000000000
     12344       106  POPC      H16Z           -7.7686144661       55.0690797120        0.9637687107  MEMB      106             0.0000000000
     12345       107  POPC      N              39.2056197022      -37.2596417569       17.3636728040  MEMB      107             0.0000000000
     12346       107  POPC      C12            37.7513819018      -37.0983380236       17.8862317306  MEMB      107             0.0000000000
     12347       107  POPC      H12A           37.1540558642      -37.7421380176       17.2576434673  MEMB      107             0.0000000000
     12348       107  POPC      H12B           37.5347391652      -36.0464848997       17.7719029859  MEMB      107             0.0000000000
     12349       107  POPC      C13            39.4956288194      -38.7170090231       17.2471019604  MEMB      107             0.0000000000
     12350       107  POPC      H13A           38.8416547155      -39.0921095657       16.4737862402  MEMB      107             0.0000000000
     12351       107  POPC      H13B           40.5438096429      -38.9050827634       17.0672538090  MEMB      107             0.0000000000
     12352       107  POPC      H13C           39.3038803223      -39.1967878122       18.1954927284  MEMB      107             0.0000000000
     12353       107  POPC      C14            39.2326751478      -36.6369856388       15.9785299870  MEMB      107             0.0000000000
     12354       107  POPC      H14A           39.0105699577      -35.5964110846       16.1636616369  MEMB      107             0.0000000000
     12355       107  POPC      H14B           40.2329045325      -36.8529070266       15.6331044345  MEMB      107             0.0000000000
     12356       107  POPC      H14C           38.4883416229      -37.1566929073       15.3934899231  MEMB      107             0.0000000000
     12357       107  POPC      C15            40.1298481468      -36.5531010234       18.3124094098  MEMB      107             0.0000000000
     12358       107  POPC      H15A           39.7476531979      -36.5913261670       19.3217982290  MEMB      107             0.0000000000
     12359       107  POPC      H15B           40.4309741987      -35.5429108497       18.0773802245  MEMB      107             0.0000000000
     12360       107  POPC      H15C           41.0033117304      -37.1881495597       18.3256236390  MEMB      107             0.0000000000
     12361       107  POPC      C11            37.1736712017      -37.4741044343       19.2430872448  MEMB      107             0.0000000000
     12362       107  POPC      H11A           36.0775601757      -37.5469289524       19.0770807416  MEMB      107             0.0000000000
     12363       107  POPC      H11B           37.1936499572      -36.5962934674       19.9237998602  MEMB      107             0.0000000000
     12364       107  POPC      P              36.9591438238      -39.5825636936       20.6962381545  MEMB      107             0.0000000000
     12365       107  POPC      O13            36.1059051391      -38.7732633355       21.6332133837  MEMB      107             0.0000000000
     12366       107  POPC      O14            37.9347772000      -40.5345737368       21.2579242113  MEMB      107             0.0000000000
     12367       107  POPC      O12            37.8206881059      -38.6060657125       19.7691409006  MEMB      107             0.0000000000
     12368       107  POPC      O11            36.1755336244      -40.2931327728       19.6124502423  MEMB      107             0.0000000000
     12369       107  POPC      C1             36.7487795617      -41.0699285863       18.5855269830  MEMB      107             0.0000000000
     12370       107  POPC      HA             37.2376373482      -41.9393609556       19.0748391814  MEMB      107             0.0000000000
     12371       107  POPC      HB             37.4310338130      -40.5481316769       17.8808439527  MEMB      107             0.0000000000
     12372       107  POPC      C2             35.5467879528      -41.5138607035       17.6257247140  MEMB      107             0.0000000000
     12373       107  POPC      HS             35.1102222175      -42.3896241328       18.1518140806  MEMB      107             0.0000000000
     12374       107  POPC      O21            36.0543008978      -41.9012665809       16.2821640374  MEMB      107             0.0000000000
     12375       107  POPC      C21            36.5761280877      -43.1496657518       16.0858836092  MEMB      107             0.0000000000
     12376       107  POPC      O22            36.6636457283      -44.0446046214       16.8898947349  MEMB      107             0.0000000000
     12377       107  POPC      C22            37.3433982664      -43.0627301544       14.7450632038  MEMB      107             0.0000000000
     12378       107  POPC      H2R            36.7880939100      -43.8459328899       14.1860000955  MEMB      107             0.0000000000
     12379       107  POPC      H2S            38.2846322024      -43.6473198369       14.8266388096  MEMB      107             0.0000000000
     12380       107  POPC      C3             34.4035538448      -40.4643068806       17.3703646441  MEMB      107             0.0000000000
     12381       107  POPC      HX             34.1274411835      -40.1367527683       18.3954456116  MEMB      107             0.0000000000
     12382       107  POPC      HY             33.5216519767      -41.0007316955       16.9594891865  MEMB      107             0.0000000000
     12383       107  POPC      O31            34.8002686591      -39.3325123019       16.5948704058  MEMB      107             0.0000000000
     12384       107  POPC      C31            34.1528603316      -38.2017222190       16.8223535614  MEMB      107             0.0000000000
     12385       107  POPC      O32            33.4044897006      -38.0587856057       17.7800145881  MEMB      107             0.0000000000
     12386       107  POPC      C32            34.4125224633      -37.1958784116       15.7345715582  MEMB      107             0.0000000000
     12387       107  POPC      H2X            35.4889392302      -37.3330353943       15.4961688820  MEMB      107             0.0000000000
     12388       107  POPC      H2Y            34.2937424552      -36.1796884922       16.1676652287  MEMB      107             0.0000000000
     12389       107  POPC      C23            37.3560421789      -41.6954321301       14.0543868632  MEMB      107             0.0000000000
     12390       107  POPC      H3R            37.4162934868      -40.8392579675       14.7598345866  MEMB      107             0.0000000000
     12391       107  POPC      H3S            36.3701204680      -41.5462128524       13.5644753086  MEMB      107             0.0000000000
     12392       107  POPC      C24            38.3476529182      -41.4883902660       12.8802625275  MEMB      107             0.0000000000
     12393       107  POPC      H4R            37.9568565937      -42.1223064132       12.0557935527  MEMB      107             0.0000000000
     12394       107  POPC      H4S            39.2918647218      -41.9167095583       13.2794213225  MEMB      107             0.0000000000
     12395       107  POPC      C25            38.5036172799      -40.0302257542       12.5637759194  MEMB      107             0.0000000000
     12396       107  POPC      H5R            39.1189783339      -39.5112711998       13.3295033857  MEMB      107             0.0000000000
     12397       107  POPC      H5S            37.4836284771      -39.5898374455       12.5651973735  MEMB      107             0.0000000000
     12398       107  POPC      C26            39.0463178427      -39.8243355916       11.1899300814  MEMB      107             0.0000000000
     12399       107  POPC      H6R            38.2427642556      -40.1187824361       10.4814641188  MEMB      107             0.0000000000
     12400       107  POPC      H6S            39.9810674809      -40.4215143746       11.1271485790  MEMB      107             0.0000000000
     12401       107  POPC      C27            39.3392933787      -38.3468691641       10.8425374821  MEMB      107             0.0000000000
     12402       107  POPC      H7R            39.9683421723      -38.3030378962        9.9278259503  MEMB      107             0.0000000000
     12403       107  POPC      H7S            40.0158857190      -37.9147298556       11.6105213436  MEMB      107             0.0000000000
     12404       107  POPC      C28            38.0050920861      -37.5740618768       10.6465631034  MEMB      107             0.0000000000
     12405       107  POPC      H8R            37.5832338242      -37.4364750239       11.6651042237  MEMB      107             0.0000000000
     12406       107  POPC      H8S            37.2227565525      -38.1462295403       10.1035194366  MEMB      107             0.0000000000
     12407       107  POPC      C29            38.1708881513      -36.2106951610       10.0370858900  MEMB      107             0.0000000000
     12408       107  POPC      H91            38.6569878617      -35.4597795838       10.6772675896  MEMB      107             0.0000000000
     12409       107  POPC      C210           37.7009452764      -35.8154089485        8.8014874010  MEMB      107             0.0000000000
     12410       107  POPC      H101           37.8107033756      -34.7903554938        8.4177961902  MEMB      107             0.0000000000
     12411       107  POPC      C211           36.9060542421      -36.7164292210        7.8387585396  MEMB      107             0.0000000000
     12412       107  POPC      H11R           36.1842191208      -35.9967613425        7.3967707544  MEMB      107             0.0000000000
     12413       107  POPC      H11S           36.2074205696      -37.3751592147        8.3976023632  MEMB      107             0.0000000000
     12414       107  POPC      C212           37.6853486464      -37.5699592831        6.8375867845  MEMB      107             0.0000000000
     12415       107  POPC      H12R           36.8355703650      -37.8212972040        6.1674920611  MEMB      107             0.0000000000
     12416       107  POPC      H12S           38.0506670584      -38.5089527172        7.3057260275  MEMB      107             0.0000000000
     12417       107  POPC      C213           38.8419696154      -36.9439473727        6.0185117098  MEMB      107             0.0000000000
     12418       107  POPC      H13R           39.7619151880      -36.7167541267        6.5985152729  MEMB      107             0.0000000000
     12419       107  POPC      H13S           38.5007205562      -36.0107491157        5.5215087534  MEMB      107             0.0000000000
     12420       107  POPC      C214           39.2731208942      -37.7252088280        4.7824187724  MEMB      107             0.0000000000
     12421       107  POPC      H14R           38.3430404275      -37.8779518240        4.1942509639  MEMB      107             0.0000000000
     12422       107  POPC      H14S           39.6006185945      -38.6977423252        5.2081468007  MEMB      107             0.0000000000
     12423       107  POPC      C215           40.2748809355      -37.0254030895        3.7642042938  MEMB      107             0.0000000000
     12424       107  POPC      H15R           41.1356155700      -36.6420639097        4.3528537683  MEMB      107             0.0000000000
     12425       107  POPC      H15S           39.7637980691      -36.1417594804        3.3256957723  MEMB      107             0.0000000000
     12426       107  POPC      C216           40.7788254177      -38.0150897236        2.6194545975  MEMB      107             0.0000000000
     12427       107  POPC      H16R           41.3286318263      -37.3798184578        1.8924998008  MEMB      107             0.0000000000
     12428       107  POPC      H16S           39.8808537639      -38.4840773393        2.1633633234  MEMB      107             0.0000000000
     12429       107  POPC      C217           41.7547060045      -39.0240658095        3.1659466660  MEMB      107             0.0000000000
     12430       107  POPC      H17R           41.9085383061      -39.8689835528        2.4611260437  MEMB      107             0.0000000000
     12431       107  POPC      H17S           41.4514314829      -39.6071744827        4.0616747748  MEMB      107             0.0000000000
     12432       107  POPC      C218           43.1894700663      -38.4350957132        3.2695286349  MEMB      107             0.0000000000
     12433       107  POPC      H18R           43.9546323728      -39.2218049480        3.4425497517  MEMB      107             0.0000000000
     12434       107  POPC      H18S           43.2769905724      -37.7593223227        4.1470206058  MEMB      107             0.0000000000
     12435       107  POPC      H18T           43.4840077152      -38.0504767511        2.2697117357  MEMB      107             0.0000000000
     12436       107  POPC      C33            33.5681460863      -37.3628283748       14.5015830974  MEMB      107             0.0000000000
     12437       107  POPC      H3X            33.8109213601      -36.4486776638       13.9187368115  MEMB      107             0.0000000000
     12438       107  POPC      H3Y            32.4985304826      -37.1936859179       14.7498460060  MEMB      107             0.0000000000
     12439       107  POPC      C34            33.7677271228      -38.7247666041       13.7578898088  MEMB      107             0.0000000000
     12440       107  POPC      H4X            33.6373505479      -39.5636703112       14.4745233150  MEMB      107             0.0000000000
     12441       107  POPC      H4Y            34.8524496152      -38.7648093143       13.5210455614  MEMB      107             0.0000000000
     12442       107  POPC      C35            32.9176934687      -38.8919991873       12.4991984070  MEMB      107             0.0000000000
     12443       107  POPC      H5X            31.8295248706      -38.7017939583       12.6176569166  MEMB      107             0.0000000000
     12444       107  POPC      H5Y            32.9144757177      -39.9424850667       12.1375493159  MEMB      107             0.0000000000
     12445       107  POPC      C36            33.4421337518      -38.0020481973       11.3084514565  MEMB      107             0.0000000000
     12446       107  POPC      H6X            33.6688707198      -37.0276098788       11.7915469634  MEMB      107             0.0000000000
     12447       107  POPC      H6Y            32.5722477277      -37.9273323423       10.6214025000  MEMB      107             0.0000000000
     12448       107  POPC      C37            34.7222691738      -38.5797890764       10.6120724155  MEMB      107             0.0000000000
     12449       107  POPC      H7X            35.5284572730      -38.6830106407       11.3695197244  MEMB      107             0.0000000000
     12450       107  POPC      H7Y            35.1356916388      -37.7725328423        9.9704023929  MEMB      107             0.0000000000
     12451       107  POPC      C38            34.5610481095      -39.8530957007        9.7392871593  MEMB      107             0.0000000000
     12452       107  POPC      H8X            33.5963868345      -39.9043118111        9.1905369724  MEMB      107             0.0000000000
     12453       107  POPC      H8Y            34.5306674767      -40.6486879963       10.5141622354  MEMB      107             0.0000000000
     12454       107  POPC      C39            35.6845419201      -40.0371632427        8.6721772222  MEMB      107             0.0000000000
     12455       107  POPC      H9X            36.6818268353      -39.8748705732        9.1341351434  MEMB      107             0.0000000000
     12456       107  POPC      H9Y            35.4410346646      -39.2645678596        7.9118344159  MEMB      107             0.0000000000
     12457       107  POPC      C310           35.7337506907      -41.3776732318        7.9365174240  MEMB      107             0.0000000000
     12458       107  POPC      H10X           34.7902564770      -41.6108597975        7.3982208935  MEMB      107             0.0000000000
     12459       107  POPC      H10Y           35.7619250369      -42.2180165408        8.6627071123  MEMB      107             0.0000000000
     12460       107  POPC      C311           36.8363750931      -41.3637078415        6.8366269287  MEMB      107             0.0000000000
     12461       107  POPC      H11X           37.1185000391      -42.4294122790        6.6987831996  MEMB      107             0.0000000000
     12462       107  POPC      H11Y           37.7168364891      -40.8217139803        7.2432613467  MEMB      107             0.0000000000
     12463       107  POPC      C312           36.2462498313      -40.8669273476        5.4280265981  MEMB      107             0.0000000000
     12464       107  POPC      H12X           36.0827088829      -39.7689648389        5.4733442653  MEMB      107             0.0000000000
     12465       107  POPC      H12Y           35.2390458942      -41.3231600104        5.3198002395  MEMB      107             0.0000000000
     12466       107  POPC      C313           37.1387236218      -41.2181725924        4.1876265517  MEMB      107             0.0000000000
     12467       107  POPC      H13X           37.1340481515      -42.2721806826        3.8363918341  MEMB      107             0.0000000000
     12468       107  POPC      H13Y           38.1661197638      -40.8763723177        4.4365258233  MEMB      107             0.0000000000
     12469       107  POPC      C314           36.7829405924      -40.3531649170        2.9553693176  MEMB      107             0.0000000000
     12470       107  POPC      H14X           37.4699679913      -39.4856043401        3.0536178030  MEMB      107             0.0000000000
     12471       107  POPC      H14Y           35.7305747293      -39.9970476175        2.9606162329  MEMB      107             0.0000000000
     12472       107  POPC      C315           37.0709933824      -41.0294033091        1.5822060829  MEMB      107             0.0000000000
     12473       107  POPC      H15X           36.7487323627      -40.2404744681        0.8694225668  MEMB      107             0.0000000000
     12474       107  POPC      H15Y           36.4507184265      -41.9291088951        1.3819313269  MEMB      107             0.0000000000
     12475       107  POPC      C316           38.5035075085      -41.2787905755        1.4602067808  MEMB      107             0.0000000000
     12476       107  POPC      H16X           38.8809126754      -42.0667827455        2.1464683485  MEMB      107             0.0000000000
     12477       107  POPC      H16Y           39.2262250975      -40.4475116172        1.6050366117  MEMB      107             0.0000000000
     12478       107  POPC      H16Z           38.6255981877      -41.7935952037        0.4832773460  MEMB      107             0.0000000000
     12479       108  POPC      N              56.0072943149       -2.6693550911       18.3343825845  MEMB      108             0.0000000000
     12480       108  POPC      C12            55.9077798221       -4.1289437869       18.8168521560  MEMB      108             0.0000000000
     12481       108  POPC      H12A           56.2792565359       -4.8500696876       18.1038427235  MEMB      108             0.0000000000
     12482       108  POPC      H12B           54.8404507575       -4.2673147712       18.9066400769  MEMB      108             0.0000000000
     12483       108  POPC      C13            55.1764909108       -2.4860650679       17.0976900758  MEMB      108             0.0000000000
     12484       108  POPC      H13A           54.1372547850       -2.7498512133       17.2273251002  MEMB      108             0.0000000000
     12485       108  POPC      H13B           55.1858749074       -1.4352946523       16.8483040657  MEMB      108             0.0000000000
     12486       108  POPC      H13C           55.5788273517       -3.0680953391       16.2817450804  MEMB      108             0.0000000000
     12487       108  POPC      C14            55.7219693193       -1.6038419874       19.4007562229  MEMB      108             0.0000000000
     12488       108  POPC      H14A           56.4010114410       -1.8036545089       20.2164624914  MEMB      108             0.0000000000
     12489       108  POPC      H14B           55.8278751463       -0.6624345216       18.8821660151  MEMB      108             0.0000000000
     12490       108  POPC      H14C           54.7089117633       -1.6643943089       19.7701446689  MEMB      108             0.0000000000
     12491       108  POPC      C15            57.4192866151       -2.4947684319       17.7613426296  MEMB      108             0.0000000000
     12492       108  POPC      H15A           57.6796078303       -3.0774626253       16.8900789311  MEMB      108             0.0000000000
     12493       108  POPC      H15B           58.0627233366       -2.8749343210       18.5409982902  MEMB      108             0.0000000000
     12494       108  POPC      H15C           57.5682061927       -1.4409217077       17.5779569417  MEMB      108             0.0000000000
     12495       108  POPC      C11            56.6198283789       -4.5903857802       20.1040826416  MEMB      108             0.0000000000
     12496       108  POPC      H11A           56.3938864931       -5.6017980736       20.5044779595  MEMB      108             0.0000000000
     12497       108  POPC      H11B           56.3270271606       -3.8069808290       20.8354274275  MEMB      108             0.0000000000
     12498       108  POPC      P              58.8220238561       -5.9090571241       19.5832880227  MEMB      108             0.0000000000
     12499       108  POPC      O13            58.9100661931       -6.7699120288       20.7441626881  MEMB      108             0.0000000000
     12500       108  POPC      O14            60.0631083868       -5.6476348607       18.8358704959  MEMB      108             0.0000000000
     12501       108  POPC      O12            58.0271948840       -4.5705544059       19.9689102083  MEMB      108             0.0000000000
     12502       108  POPC      O11            57.8259911370       -6.5124410910       18.3526622740  MEMB      108             0.0000000000
     12503       108  POPC      C1             58.1582239618       -7.7490216408       17.6816153321  MEMB      108             0.0000000000
     12504       108  POPC      HA             58.1961061296       -8.6144750231       18.3772272513  MEMB      108             0.0000000000
     12505       108  POPC      HB             59.1587187818       -7.6721849211       17.2047220163  MEMB      108             0.0000000000
     12506       108  POPC      C2             57.2166878654       -8.0238848464       16.4566200502  MEMB      108             0.0000000000
     12507       108  POPC      HS             57.6095584676       -8.9432635529       15.9721446247  MEMB      108             0.0000000000
     12508       108  POPC      O21            57.2002137632       -6.9098779385       15.6453420420  MEMB      108             0.0000000000
     12509       108  POPC      C21            58.3974988447       -6.6695737636       15.0503352964  MEMB      108             0.0000000000
     12510       108  POPC      O22            59.2618534815       -7.5016275502       14.8905664897  MEMB      108             0.0000000000
     12511       108  POPC      C22            58.5228011081       -5.1943539770       14.5630070100  MEMB      108             0.0000000000
     12512       108  POPC      H2R            58.5661711385       -4.4496095273       15.3862907713  MEMB      108             0.0000000000
     12513       108  POPC      H2S            57.6414956190       -4.8419293680       13.9855833456  MEMB      108             0.0000000000
     12514       108  POPC      C3             55.7938555283       -8.2465926721       17.0587661507  MEMB      108             0.0000000000
     12515       108  POPC      HX             55.4342504498       -7.2512426860       17.3968247452  MEMB      108             0.0000000000
     12516       108  POPC      HY             55.8458172645       -9.0219029775       17.8528157949  MEMB      108             0.0000000000
     12517       108  POPC      O31            54.8899529417       -8.7403854474       15.9640465389  MEMB      108             0.0000000000
     12518       108  POPC      C31            53.5732595420       -8.9498522718       16.2959530984  MEMB      108             0.0000000000
     12519       108  POPC      O32            53.0765781255       -8.8689213459       17.3988998288  MEMB      108             0.0000000000
     12520       108  POPC      C32            52.7095354036       -9.0800902210       14.9644769902  MEMB      108             0.0000000000
     12521       108  POPC      H2X            51.6341908922       -9.0847685417       15.2436431819  MEMB      108             0.0000000000
     12522       108  POPC      H2Y            52.9567275248      -10.0814910943       14.5516652759  MEMB      108             0.0000000000
     12523       108  POPC      C23            59.7875423192       -4.9762542739       13.8163178597  MEMB      108             0.0000000000
     12524       108  POPC      H3R            59.7826940881       -5.6971366248       12.9709621890  MEMB      108             0.0000000000
     12525       108  POPC      H3S            60.6134487337       -5.2395555320       14.5112079585  MEMB      108             0.0000000000
     12526       108  POPC      C24            60.0721649818       -3.5663038050       13.2018251725  MEMB      108             0.0000000000
     12527       108  POPC      H4R            61.1532155602       -3.4502927955       12.9733688629  MEMB      108             0.0000000000
     12528       108  POPC      H4S            59.9631675434       -2.8600594429       14.0525069520  MEMB      108             0.0000000000
     12529       108  POPC      C25            59.1639394373       -3.0620881527       12.0385404760  MEMB      108             0.0000000000
     12530       108  POPC      H5R            59.3431042384       -1.9657467450       12.0545535357  MEMB      108             0.0000000000
     12531       108  POPC      H5S            58.0789353270       -3.2175663352       12.2199615938  MEMB      108             0.0000000000
     12532       108  POPC      C26            59.4619827227       -3.4776362557       10.5262203833  MEMB      108             0.0000000000
     12533       108  POPC      H6R            60.4373220161       -3.0028160874       10.2862625376  MEMB      108             0.0000000000
     12534       108  POPC      H6S            58.7377632603       -3.0364494831        9.8084593600  MEMB      108             0.0000000000
     12535       108  POPC      C27            59.2329979949       -4.9638699713       10.2954847597  MEMB      108             0.0000000000
     12536       108  POPC      H7R            58.2304585952       -5.2654096190       10.6673841459  MEMB      108             0.0000000000
     12537       108  POPC      H7S            60.0069231264       -5.5544459423       10.8308180430  MEMB      108             0.0000000000
     12538       108  POPC      C28            59.3411736008       -5.5881496666        8.8972268525  MEMB      108             0.0000000000
     12539       108  POPC      H8R            60.2749375726       -5.1266760917        8.5106422135  MEMB      108             0.0000000000
     12540       108  POPC      H8S            58.4940873608       -5.2165790357        8.2818402625  MEMB      108             0.0000000000
     12541       108  POPC      C29            59.3227876232       -7.1289543705        8.8342968240  MEMB      108             0.0000000000
     12542       108  POPC      H91            59.8323415827       -7.6477419593        9.6596536035  MEMB      108             0.0000000000
     12543       108  POPC      C210           58.5488752482       -7.8051401880        7.9610607871  MEMB      108             0.0000000000
     12544       108  POPC      H101           58.6003139668       -8.9039228465        7.9666280023  MEMB      108             0.0000000000
     12545       108  POPC      C211           57.5842968326       -7.2575644640        6.9443337456  MEMB      108             0.0000000000
     12546       108  POPC      H11R           57.8244165239       -6.2460145665        6.5526317572  MEMB      108             0.0000000000
     12547       108  POPC      H11S           56.6743299289       -7.0615700815        7.5508545902  MEMB      108             0.0000000000
     12548       108  POPC      C212           57.3503513378       -8.2833722351        5.7219382301  MEMB      108             0.0000000000
     12549       108  POPC      H12R           56.3571826883       -8.0805346010        5.2671922181  MEMB      108             0.0000000000
     12550       108  POPC      H12S           57.1515648990       -9.3366939748        6.0140306749  MEMB      108             0.0000000000
     12551       108  POPC      C213           58.5186709177       -8.2798002197        4.7008186612  MEMB      108             0.0000000000
     12552       108  POPC      H13R           59.4898159279       -8.3037084489        5.2399171464  MEMB      108             0.0000000000
     12553       108  POPC      H13S           58.5625319842       -7.2813218181        4.2155989512  MEMB      108             0.0000000000
     12554       108  POPC      C214           58.4936715789       -9.2961414658        3.5620850606  MEMB      108             0.0000000000
     12555       108  POPC      H14R           58.7484816486      -10.2776721073        4.0159468973  MEMB      108             0.0000000000
     12556       108  POPC      H14S           59.2931225561       -9.1840261120        2.7987834670  MEMB      108             0.0000000000
     12557       108  POPC      C215           57.1371328935       -9.4498973629        2.8829350034  MEMB      108             0.0000000000
     12558       108  POPC      H15R           56.7917472420       -8.4427120725        2.5657480754  MEMB      108             0.0000000000
     12559       108  POPC      H15S           56.3829007165       -9.8030070554        3.6183040726  MEMB      108             0.0000000000
     12560       108  POPC      C216           57.0397324829      -10.3852531041        1.6950556895  MEMB      108             0.0000000000
     12561       108  POPC      H16R           57.4568661766      -11.3732783631        1.9851023382  MEMB      108             0.0000000000
     12562       108  POPC      H16S           57.7197420017       -9.9861030153        0.9123769112  MEMB      108             0.0000000000
     12563       108  POPC      C217           55.6286489509      -10.4791998388        1.2687865266  MEMB      108             0.0000000000
     12564       108  POPC      H17R           55.1684540341       -9.5307406081        0.9181215492  MEMB      108             0.0000000000
     12565       108  POPC      H17S           54.9171867099      -10.9937441700        1.9495125213  MEMB      108             0.0000000000
     12566       108  POPC      C218           55.5885291606      -11.5315323045        0.1584803936  MEMB      108             0.0000000000
     12567       108  POPC      H18R           54.7022159436      -11.4281231756       -0.5033924677  MEMB      108             0.0000000000
     12568       108  POPC      H18S           55.4461341153      -12.5223768908        0.6404266705  MEMB      108             0.0000000000
     12569       108  POPC      H18T           56.5368010746      -11.5056657792       -0.4198211425  MEMB      108             0.0000000000
     12570       108  POPC      C33            53.0766678470       -7.9443368024       14.0456971683  MEMB      108             0.0000000000
     12571       108  POPC      H3X            52.5349281776       -8.0322021519       13.0797166418  MEMB      108             0.0000000000
     12572       108  POPC      H3Y            54.1535921954       -8.0583559986       13.7975951975  MEMB      108             0.0000000000
     12573       108  POPC      C34            52.7351293476       -6.5298282170       14.6350220189  MEMB      108             0.0000000000
     12574       108  POPC      H4X            53.2196981743       -6.3268631442       15.6139598538  MEMB      108             0.0000000000
     12575       108  POPC      H4Y            51.6568175968       -6.5988686677       14.8934763732  MEMB      108             0.0000000000
     12576       108  POPC      C35            53.0409073072       -5.4257831603       13.5783395535  MEMB      108             0.0000000000
     12577       108  POPC      H5X            52.6136392796       -4.4800387490       13.9749883452  MEMB      108             0.0000000000
     12578       108  POPC      H5Y            52.7226089727       -5.6198766208       12.5317571819  MEMB      108             0.0000000000
     12579       108  POPC      C36            54.5421464441       -5.1386540473       13.4721549540  MEMB      108             0.0000000000
     12580       108  POPC      H6X            55.1063188315       -5.9967571799       13.0482571269  MEMB      108             0.0000000000
     12581       108  POPC      H6Y            54.9931040214       -4.9520345707       14.4702190020  MEMB      108             0.0000000000
     12582       108  POPC      C37            54.8672706417       -3.8545497993       12.5977953177  MEMB      108             0.0000000000
     12583       108  POPC      H7X            55.8497483619       -3.4351650790       12.9030411967  MEMB      108             0.0000000000
     12584       108  POPC      H7Y            54.2453412020       -2.9479442047       12.7577671156  MEMB      108             0.0000000000
     12585       108  POPC      C38            54.8663664011       -4.2592590969       11.0778669303  MEMB      108             0.0000000000
     12586       108  POPC      H8X            53.7985317568       -4.3477430050       10.7842330960  MEMB      108             0.0000000000
     12587       108  POPC      H8Y            55.3419738938       -5.2326066648       10.8314666869  MEMB      108             0.0000000000
     12588       108  POPC      C39            55.5420490058       -3.2097480557       10.1810389446  MEMB      108             0.0000000000
     12589       108  POPC      H9X            56.6363741299       -3.2990608505       10.3507336547  MEMB      108             0.0000000000
     12590       108  POPC      H9Y            55.1340708383       -2.2091162249       10.4391305589  MEMB      108             0.0000000000
     12591       108  POPC      C310           55.2949327846       -3.4277715385        8.6493632244  MEMB      108             0.0000000000
     12592       108  POPC      H10X           54.1934578195       -3.4448581798        8.5052040409  MEMB      108             0.0000000000
     12593       108  POPC      H10Y           55.6719055830       -4.3784876159        8.2153695452  MEMB      108             0.0000000000
     12594       108  POPC      C311           56.0164930191       -2.4153032561        7.7693706619  MEMB      108             0.0000000000
     12595       108  POPC      H11X           57.1009257868       -2.4426448331        8.0093258371  MEMB      108             0.0000000000
     12596       108  POPC      H11Y           55.5581481267       -1.4096237745        7.8827262178  MEMB      108             0.0000000000
     12597       108  POPC      C312           55.7472097521       -2.5239731340        6.1967308073  MEMB      108             0.0000000000
     12598       108  POPC      H12X           56.4436271331       -1.7657486608        5.7790953550  MEMB      108             0.0000000000
     12599       108  POPC      H12Y           54.6757764987       -2.4093681942        5.9261439287  MEMB      108             0.0000000000
     12600       108  POPC      C313           56.2328473015       -3.8687256848        5.5981818664  MEMB      108             0.0000000000
     12601       108  POPC      H13X           55.5640284595       -4.6896097406        5.9345617352  MEMB      108             0.0000000000
     12602       108  POPC      H13Y           57.2943680393       -3.9568945556        5.9139670655  MEMB      108             0.0000000000
     12603       108  POPC      C314           56.3770337496       -3.8743786783        4.0285974388  MEMB      108             0.0000000000
     12604       108  POPC      H14X           56.9864466559       -4.7712963320        3.7867786537  MEMB      108             0.0000000000
     12605       108  POPC      H14Y           56.9099186001       -2.9158677787        3.8508014031  MEMB      108             0.0000000000
     12606       108  POPC      C315           55.0849143264       -3.8747741133        3.2343166498  MEMB      108             0.0000000000
     12607       108  POPC      H15X           55.3839964039       -3.3575459634        2.2976485514  MEMB      108             0.0000000000
     12608       108  POPC      H15Y           54.3213555966       -3.2365470978        3.7282454082  MEMB      108             0.0000000000
     12609       108  POPC      C316           54.5286480297       -5.3244049783        2.9324877576  MEMB      108             0.0000000000
     12610       108  POPC      H16X           53.4599390800       -5.3605751735        2.6310354133  MEMB      108             0.0000000000
     12611       108  POPC      H16Y           54.5789754857       -5.9997227787        3.8132462921  MEMB      108             0.0000000000
     12612       108  POPC      H16Z           55.0194273017       -5.7605746008        2.0362663666  MEMB      108             0.0000000000
     12613       109  POPC      N              52.7572689940      -17.8505585391       18.6928768155  MEMB      109             0.0000000000
     12614       109  POPC      C12            54.1902016027      -17.3256067202       18.4610754354  MEMB      109             0.0000000000
     12615       109  POPC      H12A           54.3973414960      -16.5037479411       19.1304342871  MEMB      109             0.0000000000
     12616       109  POPC      H12B           54.3426686043      -17.0320868300       17.4329704342  MEMB      109             0.0000000000
     12617       109  POPC      C13            52.4744341715      -18.1098657111       20.1116627587  MEMB      109             0.0000000000
     12618       109  POPC      H13A           52.9035555215      -19.0551014870       20.4096294896  MEMB      109             0.0000000000
     12619       109  POPC      H13B           52.6971789304      -17.2423403518       20.7151396666  MEMB      109             0.0000000000
     12620       109  POPC      H13C           51.4233404854      -18.3487611970       20.1789763123  MEMB      109             0.0000000000
     12621       109  POPC      C14            51.7755892040      -16.8829653126       18.1082991131  MEMB      109             0.0000000000
     12622       109  POPC      H14A           52.1831419423      -16.7336681074       17.1193546403  MEMB      109             0.0000000000
     12623       109  POPC      H14B           50.7996021926      -17.3211970247       18.2559542173  MEMB      109             0.0000000000
     12624       109  POPC      H14C           51.8020393099      -16.0395374133       18.7823394251  MEMB      109             0.0000000000
     12625       109  POPC      C15            52.6299155134      -19.1160369202       17.8337639240  MEMB      109             0.0000000000
     12626       109  POPC      H15A           52.8116051359      -18.7352704045       16.8395779888  MEMB      109             0.0000000000
     12627       109  POPC      H15B           51.5910006998      -19.4103524804       17.8129214858  MEMB      109             0.0000000000
     12628       109  POPC      H15C           53.3082071649      -19.8366392459       18.2662598341  MEMB      109             0.0000000000
     12629       109  POPC      C11            55.4124582691      -18.2868328590       18.7024106010  MEMB      109             0.0000000000
     12630       109  POPC      H11A           56.1850044190      -17.6054185163       19.1185453940  MEMB      109             0.0000000000
     12631       109  POPC      H11B           55.7558502418      -18.6184408328       17.6991962539  MEMB      109             0.0000000000
     12632       109  POPC      P              55.6000754008      -20.8913233324       19.4976015235  MEMB      109             0.0000000000
     12633       109  POPC      O13            54.7911179143      -21.7667185506       20.4234414621  MEMB      109             0.0000000000
     12634       109  POPC      O14            57.0894306060      -20.9090017616       19.5860401406  MEMB      109             0.0000000000
     12635       109  POPC      O12            55.1578355299      -19.3110904904       19.6564129152  MEMB      109             0.0000000000
     12636       109  POPC      O11            55.2228477983      -21.0432597955       17.9264153062  MEMB      109             0.0000000000
     12637       109  POPC      C1             55.6947558164      -22.2554238170       17.2952325637  MEMB      109             0.0000000000
     12638       109  POPC      HA             55.1523810118      -23.1747940669       17.6033055735  MEMB      109             0.0000000000
     12639       109  POPC      HB             56.7471616446      -22.5312753004       17.5203303039  MEMB      109             0.0000000000
     12640       109  POPC      C2             55.4066002538      -22.0985317308       15.7837238908  MEMB      109             0.0000000000
     12641       109  POPC      HS             56.2233528136      -21.6049575792       15.2148468602  MEMB      109             0.0000000000
     12642       109  POPC      O21            54.1385609393      -21.4348912140       15.6159989755  MEMB      109             0.0000000000
     12643       109  POPC      C21            54.1151571482      -20.4444428188       14.7684585363  MEMB      109             0.0000000000
     12644       109  POPC      O22            55.0886724492      -19.9242826714       14.2124442488  MEMB      109             0.0000000000
     12645       109  POPC      C22            52.6192604211      -20.1316290800       14.5731745971  MEMB      109             0.0000000000
     12646       109  POPC      H2R            52.5553835414      -19.0260039221       14.4846665437  MEMB      109             0.0000000000
     12647       109  POPC      H2S            51.9854341036      -20.4354192328       15.4335798840  MEMB      109             0.0000000000
     12648       109  POPC      C3             55.3758920573      -23.5355064162       15.2273524149  MEMB      109             0.0000000000
     12649       109  POPC      HX             54.4156574553      -23.9923497031       15.5491672839  MEMB      109             0.0000000000
     12650       109  POPC      HY             56.2743415123      -24.1097137044       15.5394347946  MEMB      109             0.0000000000
     12651       109  POPC      O31            55.2278281523      -23.5041983394       13.7772792683  MEMB      109             0.0000000000
     12652       109  POPC      C31            56.2948851670      -23.2697486158       12.9895287701  MEMB      109             0.0000000000
     12653       109  POPC      O32            57.4841178791      -23.2600422425       13.2476533626  MEMB      109             0.0000000000
     12654       109  POPC      C32            55.7716553967      -22.8662111792       11.5780424974  MEMB      109             0.0000000000
     12655       109  POPC      H2X            54.7405843363      -22.4531674543       11.6027097961  MEMB      109             0.0000000000
     12656       109  POPC      H2Y            55.7259639226      -23.8128279513       10.9982583314  MEMB      109             0.0000000000
     12657       109  POPC      C23            52.2438655512      -20.6604625841       13.2062069925  MEMB      109             0.0000000000
     12658       109  POPC      H3R            52.0170501367      -21.7455057764       13.1316620076  MEMB      109             0.0000000000
     12659       109  POPC      H3S            53.1789002106      -20.5889758503       12.6104547305  MEMB      109             0.0000000000
     12660       109  POPC      C24            51.0679747427      -19.9887704962       12.5162487712  MEMB      109             0.0000000000
     12661       109  POPC      H4R            51.2339663890      -18.9286968234       12.8043659584  MEMB      109             0.0000000000
     12662       109  POPC      H4S            50.1255807430      -20.3348484692       12.9921105162  MEMB      109             0.0000000000
     12663       109  POPC      C25            50.9709275111      -20.2669726422       11.0321891663  MEMB      109             0.0000000000
     12664       109  POPC      H5R            51.8611176189      -19.8620920426       10.5049753414  MEMB      109             0.0000000000
     12665       109  POPC      H5S            50.0390065827      -19.7191571184       10.7757853199  MEMB      109             0.0000000000
     12666       109  POPC      C26            50.7645881909      -21.7728257406       10.6207019071  MEMB      109             0.0000000000
     12667       109  POPC      H6R            49.9992797835      -22.1229703826       11.3459759004  MEMB      109             0.0000000000
     12668       109  POPC      H6S            51.7132427858      -22.3379686622       10.7431301352  MEMB      109             0.0000000000
     12669       109  POPC      C27            50.3346160449      -22.0205035808        9.1637426922  MEMB      109             0.0000000000
     12670       109  POPC      H7R            49.3376759168      -21.5646097439        8.9832095397  MEMB      109             0.0000000000
     12671       109  POPC      H7S            50.2206195013      -23.1235877585        9.0964302845  MEMB      109             0.0000000000
     12672       109  POPC      C28            51.4134134988      -21.6304233719        8.1800067258  MEMB      109             0.0000000000
     12673       109  POPC      H8R            51.6569966453      -20.5517737258        8.0727532629  MEMB      109             0.0000000000
     12674       109  POPC      H8S            51.0160884906      -21.9009088750        7.1783623480  MEMB      109             0.0000000000
     12675       109  POPC      C29            52.6758493803      -22.4243813496        8.4701462236  MEMB      109             0.0000000000
     12676       109  POPC      H91            53.4603171683      -21.9749464181        9.0967390184  MEMB      109             0.0000000000
     12677       109  POPC      C210           53.0165205854      -23.5989644092        7.8975376200  MEMB      109             0.0000000000
     12678       109  POPC      H101           53.9858939307      -24.0213827186        8.2006517934  MEMB      109             0.0000000000
     12679       109  POPC      C211           52.3005721918      -24.4748361454        6.8915977965  MEMB      109             0.0000000000
     12680       109  POPC      H11R           51.2481064717      -24.1674394891        6.7123098726  MEMB      109             0.0000000000
     12681       109  POPC      H11S           52.1137307158      -25.5120636769        7.2431236159  MEMB      109             0.0000000000
     12682       109  POPC      C212           53.0989916584      -24.5538403511        5.5598559283  MEMB      109             0.0000000000
     12683       109  POPC      H12R           52.5708083203      -25.3888850889        5.0518761743  MEMB      109             0.0000000000
     12684       109  POPC      H12S           54.1209788292      -24.8263008798        5.8998982472  MEMB      109             0.0000000000
     12685       109  POPC      C213           52.9545942836      -23.2880358201        4.6287204344  MEMB      109             0.0000000000
     12686       109  POPC      H13R           53.3804468737      -22.3737910342        5.0946895756  MEMB      109             0.0000000000
     12687       109  POPC      H13S           51.8630266892      -23.1978655597        4.4425209819  MEMB      109             0.0000000000
     12688       109  POPC      C214           53.8809168599      -23.4457337679        3.3227533375  MEMB      109             0.0000000000
     12689       109  POPC      H14R           53.6396158870      -24.4196565082        2.8457106751  MEMB      109             0.0000000000
     12690       109  POPC      H14S           54.9579935071      -23.4606260827        3.5947927056  MEMB      109             0.0000000000
     12691       109  POPC      C215           53.6458133701      -22.3912649165        2.2144785906  MEMB      109             0.0000000000
     12692       109  POPC      H15R           53.6869025748      -21.3314317896        2.5452143562  MEMB      109             0.0000000000
     12693       109  POPC      H15S           52.6111387967      -22.5998246023        1.8676759754  MEMB      109             0.0000000000
     12694       109  POPC      C216           54.5605646615      -22.4004674672        1.0072584232  MEMB      109             0.0000000000
     12695       109  POPC      H16R           54.2731990654      -21.6741030531        0.2172348515  MEMB      109             0.0000000000
     12696       109  POPC      H16S           54.3849698847      -23.4181564395        0.5976282469  MEMB      109             0.0000000000
     12697       109  POPC      C217           56.0423058091      -22.0754382982        1.2742887701  MEMB      109             0.0000000000
     12698       109  POPC      H17R           56.4113972401      -22.8250496610        2.0065297824  MEMB      109             0.0000000000
     12699       109  POPC      H17S           56.1512952153      -21.0827520730        1.7611331315  MEMB      109             0.0000000000
     12700       109  POPC      C218           56.7721548031      -22.2332246130        0.0098877374  MEMB      109             0.0000000000
     12701       109  POPC      H18R           57.8582481737      -22.0058046504        0.0646793487  MEMB      109             0.0000000000
     12702       109  POPC      H18S           56.3119587260      -21.4854498612       -0.6708269708  MEMB      109             0.0000000000
     12703       109  POPC      H18T           56.5857078365      -23.2179678244       -0.4695272265  MEMB      109             0.0000000000
     12704       109  POPC      C33            56.7356482715      -21.7916560906       10.8683682954  MEMB      109             0.0000000000
     12705       109  POPC      H3X            57.8001026697      -22.0608130434       11.0381092906  MEMB      109             0.0000000000
     12706       109  POPC      H3Y            56.5689584642      -20.8220638827       11.3845335037  MEMB      109             0.0000000000
     12707       109  POPC      C34            56.5095418241      -21.5910265871        9.3586014138  MEMB      109             0.0000000000
     12708       109  POPC      H4X            55.6094269998      -20.9421436212        9.3032379813  MEMB      109             0.0000000000
     12709       109  POPC      H4Y            56.4138035792      -22.5932488170        8.8888085429  MEMB      109             0.0000000000
     12710       109  POPC      C35            57.7042992438      -20.9147056214        8.6054467500  MEMB      109             0.0000000000
     12711       109  POPC      H5X            58.5946262377      -21.5790141072        8.5871987303  MEMB      109             0.0000000000
     12712       109  POPC      H5Y            57.8835548634      -19.9302461916        9.0881760742  MEMB      109             0.0000000000
     12713       109  POPC      C36            57.1822692465      -20.7800458516        7.1173846725  MEMB      109             0.0000000000
     12714       109  POPC      H6X            56.7080182254      -21.7229119034        6.7703823990  MEMB      109             0.0000000000
     12715       109  POPC      H6Y            58.1374923146      -20.5660885002        6.5919401128  MEMB      109             0.0000000000
     12716       109  POPC      C37            56.1386984097      -19.6857043321        6.8502069275  MEMB      109             0.0000000000
     12717       109  POPC      H7X            56.3098637007      -18.7984174669        7.4965384871  MEMB      109             0.0000000000
     12718       109  POPC      H7Y            55.1359132734      -20.0818942397        7.1181178932  MEMB      109             0.0000000000
     12719       109  POPC      C38            55.9980795291      -19.3776689224        5.3729069610  MEMB      109             0.0000000000
     12720       109  POPC      H8X            55.6593885761      -20.3281679525        4.9079760963  MEMB      109             0.0000000000
     12721       109  POPC      H8Y            56.9946145544      -19.0826001788        4.9802585922  MEMB      109             0.0000000000
     12722       109  POPC      C39            54.9317431220      -18.2743055093        5.0107236876  MEMB      109             0.0000000000
     12723       109  POPC      H9X            55.0703180010      -17.7130177129        4.0620012902  MEMB      109             0.0000000000
     12724       109  POPC      H9Y            55.0446220812      -17.4698904346        5.7686786086  MEMB      109             0.0000000000
     12725       109  POPC      C310           53.4692632659      -18.8775085126        5.0261052757  MEMB      109             0.0000000000
     12726       109  POPC      H10X           53.1558280850      -19.0099557845        6.0837138843  MEMB      109             0.0000000000
     12727       109  POPC      H10Y           53.4028385334      -19.8748221821        4.5410539282  MEMB      109             0.0000000000
     12728       109  POPC      C311           52.5218285830      -17.9710189068        4.2165303952  MEMB      109             0.0000000000
     12729       109  POPC      H11X           52.9345626436      -16.9468274743        4.0940416960  MEMB      109             0.0000000000
     12730       109  POPC      H11Y           51.5592891078      -17.7581675604        4.7289104790  MEMB      109             0.0000000000
     12731       109  POPC      C312           52.2130541234      -18.5048923568        2.8326022010  MEMB      109             0.0000000000
     12732       109  POPC      H12X           51.2586566797      -18.1183603471        2.4154205636  MEMB      109             0.0000000000
     12733       109  POPC      H12Y           52.0032874213      -19.5706120879        3.0661836769  MEMB      109             0.0000000000
     12734       109  POPC      C313           53.2791932928      -18.6483649180        1.8290798523  MEMB      109             0.0000000000
     12735       109  POPC      H13X           52.9599539753      -19.2128481145        0.9269894249  MEMB      109             0.0000000000
     12736       109  POPC      H13Y           54.1538850911      -19.1886022927        2.2502430707  MEMB      109             0.0000000000
     12737       109  POPC      C314           53.7621942348      -17.2549241062        1.3679807879  MEMB      109             0.0000000000
     12738       109  POPC      H14X           54.1749865019      -16.6318210663        2.1899704536  MEMB      109             0.0000000000
     12739       109  POPC      H14Y           52.8412438098      -16.7539045680        1.0003530545  MEMB      109             0.0000000000
     12740       109  POPC      C315           54.8441180732      -17.3124668440        0.2378565864  MEMB      109             0.0000000000
     12741       109  POPC      H15X           54.3558398442      -18.0272566331       -0.4585493531  MEMB      109             0.0000000000
     12742       109  POPC      H15Y           55.8322656809      -17.7445559170        0.5046607394  MEMB      109             0.0000000000
     12743       109  POPC      C316           55.1210084850      -16.0448089004       -0.5093050977  MEMB      109             0.0000000000
     12744       109  POPC      H16X           55.9494246031      -16.1637801091       -1.2399838927  MEMB      109             0.0000000000
     12745       109  POPC      H16Y           55.2516158140      -15.1604997299        0.1504380742  MEMB      109             0.0000000000
     12746       109  POPC      H16Z           54.2745000085      -15.7600878736       -1.1701205969  MEMB      109             0.0000000000
     12747       110  POPC      N             -24.4948625588       50.7748794271       20.6136112213  MEMB      110             0.0000000000
     12748       110  POPC      C12           -25.2482047262       49.5087413022       20.3825386514  MEMB      110             0.0000000000
     12749       110  POPC      H12A          -26.0540864831       49.3526759670       21.0843921405  MEMB      110             0.0000000000
     12750       110  POPC      H12B          -24.7011820788       48.5959618285       20.5669292299  MEMB      110             0.0000000000
     12751       110  POPC      C13           -25.3622422105       51.9902559640       20.2666653804  MEMB      110             0.0000000000
     12752       110  POPC      H13A          -26.2159569842       51.9192536922       20.9243353173  MEMB      110             0.0000000000
     12753       110  POPC      H13B          -24.8429759266       52.9356698719       20.3210286782  MEMB      110             0.0000000000
     12754       110  POPC      H13C          -25.6659525536       51.7775183873       19.2523169317  MEMB      110             0.0000000000
     12755       110  POPC      C14           -23.9513921041       50.9177457748       22.0191494251  MEMB      110             0.0000000000
     12756       110  POPC      H14A          -23.3682328430       50.0721459127       22.3527449951  MEMB      110             0.0000000000
     12757       110  POPC      H14B          -23.4222972114       51.8582393974       21.9752122179  MEMB      110             0.0000000000
     12758       110  POPC      H14C          -24.8206240942       51.0544860415       22.6453584088  MEMB      110             0.0000000000
     12759       110  POPC      C15           -23.2848150626       50.8667649637       19.7305298025  MEMB      110             0.0000000000
     12760       110  POPC      H15A          -22.4126260480       50.2804562797       19.9793840049  MEMB      110             0.0000000000
     12761       110  POPC      H15B          -23.0449225271       51.9149819939       19.6300677798  MEMB      110             0.0000000000
     12762       110  POPC      H15C          -23.7159188080       50.6228994566       18.7708010426  MEMB      110             0.0000000000
     12763       110  POPC      C11           -25.7787429280       49.3085588974       18.8935364359  MEMB      110             0.0000000000
     12764       110  POPC      H11A          -26.3987685003       50.2178422769       18.7415723148  MEMB      110             0.0000000000
     12765       110  POPC      H11B          -26.4026235259       48.3900465023       18.8557349889  MEMB      110             0.0000000000
     12766       110  POPC      P             -23.9548818246       48.0307430863       17.4702090877  MEMB      110             0.0000000000
     12767       110  POPC      O13           -24.2792481212       46.9195217491       18.4198554074  MEMB      110             0.0000000000
     12768       110  POPC      O14           -22.5760278351       48.5737958530       17.3104914821  MEMB      110             0.0000000000
     12769       110  POPC      O12           -24.7883764197       49.3182170754       17.8876980389  MEMB      110             0.0000000000
     12770       110  POPC      O11           -24.4734777880       47.6751334575       16.0057150355  MEMB      110             0.0000000000
     12771       110  POPC      C1            -25.7303787050       47.0865816586       15.8272137691  MEMB      110             0.0000000000
     12772       110  POPC      HA            -26.5572240318       47.7019875407       16.2418501302  MEMB      110             0.0000000000
     12773       110  POPC      HB            -25.7629395030       46.0182574889       16.1304366756  MEMB      110             0.0000000000
     12774       110  POPC      C2            -26.0054876648       47.1582249291       14.3106847149  MEMB      110             0.0000000000
     12775       110  POPC      HS            -26.6529010811       46.3235227251       13.9665207155  MEMB      110             0.0000000000
     12776       110  POPC      O21           -24.7892660962       47.2139223157       13.4278922658  MEMB      110             0.0000000000
     12777       110  POPC      C21           -24.0431904421       46.1216030631       13.3764462964  MEMB      110             0.0000000000
     12778       110  POPC      O22           -24.2969268338       45.0745271344       14.0079487767  MEMB      110             0.0000000000
     12779       110  POPC      C22           -22.7426596484       46.5554317219       12.6132046679  MEMB      110             0.0000000000
     12780       110  POPC      H2R           -21.9355830012       46.4693138095       13.3718426400  MEMB      110             0.0000000000
     12781       110  POPC      H2S           -22.7780159918       47.6223188306       12.3052714289  MEMB      110             0.0000000000
     12782       110  POPC      C3            -26.9384210667       48.4551535903       14.0173291643  MEMB      110             0.0000000000
     12783       110  POPC      HX            -26.5145946817       49.4460450652       14.2871926602  MEMB      110             0.0000000000
     12784       110  POPC      HY            -27.8950112324       48.3618917300       14.5746071192  MEMB      110             0.0000000000
     12785       110  POPC      O31           -27.3096323974       48.4348585024       12.6526026548  MEMB      110             0.0000000000
     12786       110  POPC      C31           -26.6492941072       49.3636632270       11.8732752221  MEMB      110             0.0000000000
     12787       110  POPC      O32           -26.1100630127       50.3374136087       12.3183893964  MEMB      110             0.0000000000
     12788       110  POPC      C32           -26.8353478929       48.9295351084       10.3606021712  MEMB      110             0.0000000000
     12789       110  POPC      H2X           -27.7499445602       49.4922099842       10.0755917798  MEMB      110             0.0000000000
     12790       110  POPC      H2Y           -26.9190510685       47.8305254634       10.2209870001  MEMB      110             0.0000000000
     12791       110  POPC      C23           -22.6469243369       45.5399490248       11.4625492116  MEMB      110             0.0000000000
     12792       110  POPC      H3R           -22.5890085020       44.5518212349       11.9670992216  MEMB      110             0.0000000000
     12793       110  POPC      H3S           -21.6360099234       45.7163425250       11.0368046395  MEMB      110             0.0000000000
     12794       110  POPC      C24           -23.7516753065       45.7265688222       10.3874519004  MEMB      110             0.0000000000
     12795       110  POPC      H4R           -23.7541853139       46.6165720106        9.7224644953  MEMB      110             0.0000000000
     12796       110  POPC      H4S           -24.6544364202       45.7490566252       11.0346290833  MEMB      110             0.0000000000
     12797       110  POPC      C25           -23.7909588658       44.5909453538        9.3798198614  MEMB      110             0.0000000000
     12798       110  POPC      H5R           -24.2549482312       43.6618704172        9.7746042048  MEMB      110             0.0000000000
     12799       110  POPC      H5S           -22.8088654183       44.2429789169        8.9941607464  MEMB      110             0.0000000000
     12800       110  POPC      C26           -24.6288577221       44.9680944292        8.0689507774  MEMB      110             0.0000000000
     12801       110  POPC      H6R           -24.4540418473       44.2155061443        7.2705949824  MEMB      110             0.0000000000
     12802       110  POPC      H6S           -24.2927211358       45.9857310286        7.7761211551  MEMB      110             0.0000000000
     12803       110  POPC      C27           -26.1822759769       44.9844736438        8.1972863769  MEMB      110             0.0000000000
     12804       110  POPC      H7R           -26.6524159220       45.8228184865        8.7544829891  MEMB      110             0.0000000000
     12805       110  POPC      H7S           -26.5558163901       44.0993203339        8.7552222488  MEMB      110             0.0000000000
     12806       110  POPC      C28           -26.7713896120       45.1230466429        6.7962145349  MEMB      110             0.0000000000
     12807       110  POPC      H8R           -26.2941667280       45.9599297040        6.2428551224  MEMB      110             0.0000000000
     12808       110  POPC      H8S           -27.8624304718       45.3000197724        6.9086034578  MEMB      110             0.0000000000
     12809       110  POPC      C29           -26.6125744452       43.9066182952        5.8761959474  MEMB      110             0.0000000000
     12810       110  POPC      H91           -27.2365730629       43.0430254448        6.1497518687  MEMB      110             0.0000000000
     12811       110  POPC      C210          -26.0237479580       43.8475830773        4.6913135482  MEMB      110             0.0000000000
     12812       110  POPC      H101          -25.9216615562       42.8899199597        4.1598449082  MEMB      110             0.0000000000
     12813       110  POPC      C211          -25.2747521060       44.9954298724        3.9237661268  MEMB      110             0.0000000000
     12814       110  POPC      H11R          -25.8416918708       45.9506873333        3.9041870132  MEMB      110             0.0000000000
     12815       110  POPC      H11S          -25.1427709396       44.9299360298        2.8225786009  MEMB      110             0.0000000000
     12816       110  POPC      C212          -23.9084061671       45.0803215507        4.5541975622  MEMB      110             0.0000000000
     12817       110  POPC      H12R          -23.5243896697       44.0756152040        4.8324375665  MEMB      110             0.0000000000
     12818       110  POPC      H12S          -23.8169479112       45.7870113171        5.4065738679  MEMB      110             0.0000000000
     12819       110  POPC      C213          -22.8632843797       45.6782393677        3.5784738476  MEMB      110             0.0000000000
     12820       110  POPC      H13R          -21.9967610294       45.9477656006        4.2194210622  MEMB      110             0.0000000000
     12821       110  POPC      H13S          -23.3923121228       46.5536820146        3.1448252649  MEMB      110             0.0000000000
     12822       110  POPC      C214          -22.2936522716       44.7558285536        2.4611545553  MEMB      110             0.0000000000
     12823       110  POPC      H14R          -23.2160785866       44.2983777364        2.0437944378  MEMB      110             0.0000000000
     12824       110  POPC      H14S          -21.7744063279       43.9320074849        2.9959665236  MEMB      110             0.0000000000
     12825       110  POPC      C215          -21.4946487990       45.5129091188        1.3845132793  MEMB      110             0.0000000000
     12826       110  POPC      H15R          -21.0903797122       44.7157529451        0.7246436907  MEMB      110             0.0000000000
     12827       110  POPC      H15S          -20.7832314594       46.1727666672        1.9256196295  MEMB      110             0.0000000000
     12828       110  POPC      C216          -22.4734048990       46.5111865937        0.6460747553  MEMB      110             0.0000000000
     12829       110  POPC      H16R          -21.7100943426       46.9747243080       -0.0148408594  MEMB      110             0.0000000000
     12830       110  POPC      H16S          -22.7576704117       47.4129595884        1.2294443118  MEMB      110             0.0000000000
     12831       110  POPC      C217          -23.5807382017       45.9588896888       -0.1835315082  MEMB      110             0.0000000000
     12832       110  POPC      H17R          -24.4146036896       45.7640206867        0.5242931377  MEMB      110             0.0000000000
     12833       110  POPC      H17S          -23.2986477304       45.0552544022       -0.7650701569  MEMB      110             0.0000000000
     12834       110  POPC      C218          -24.1765304218       46.8837470260       -1.2708407642  MEMB      110             0.0000000000
     12835       110  POPC      H18R          -24.7797735026       46.3636760413       -2.0454005981  MEMB      110             0.0000000000
     12836       110  POPC      H18S          -23.2665932016       47.3846981951       -1.6650266995  MEMB      110             0.0000000000
     12837       110  POPC      H18T          -24.8066941523       47.6878235082       -0.8341753907  MEMB      110             0.0000000000
     12838       110  POPC      C33           -25.6813683659       49.6393682040        9.5280383035  MEMB      110             0.0000000000
     12839       110  POPC      H3X           -24.6870875969       49.5339755800       10.0124128462  MEMB      110             0.0000000000
     12840       110  POPC      H3Y           -25.9270365951       50.7185927233        9.4319009311  MEMB      110             0.0000000000
     12841       110  POPC      C34           -25.4875166689       49.0794893802        8.0865265512  MEMB      110             0.0000000000
     12842       110  POPC      H4X           -26.2475683427       49.4040805982        7.3440425494  MEMB      110             0.0000000000
     12843       110  POPC      H4Y           -25.5351948727       47.9740012362        8.1862447457  MEMB      110             0.0000000000
     12844       110  POPC      C35           -24.1483107065       49.3868676349        7.4012291143  MEMB      110             0.0000000000
     12845       110  POPC      H5X           -23.9349052462       48.5296104065        6.7275153093  MEMB      110             0.0000000000
     12846       110  POPC      H5Y           -23.3207016239       49.4265543924        8.1413701437  MEMB      110             0.0000000000
     12847       110  POPC      C36           -24.3179871931       50.5750891493        6.4840482152  MEMB      110             0.0000000000
     12848       110  POPC      H6X           -24.5198327372       51.4791986740        7.0973709358  MEMB      110             0.0000000000
     12849       110  POPC      H6Y           -25.1403956169       50.4870674425        5.7422817471  MEMB      110             0.0000000000
     12850       110  POPC      C37           -23.0251691626       50.8125577641        5.7040195904  MEMB      110             0.0000000000
     12851       110  POPC      H7X           -22.5466383143       49.9207020928        5.2458469285  MEMB      110             0.0000000000
     12852       110  POPC      H7Y           -22.4095974513       51.2460485046        6.5210135522  MEMB      110             0.0000000000
     12853       110  POPC      C38           -23.2215569716       51.8482142382        4.6108863412  MEMB      110             0.0000000000
     12854       110  POPC      H8X           -22.3277483339       52.4134520997        4.2703962740  MEMB      110             0.0000000000
     12855       110  POPC      H8Y           -23.7785292927       52.7494693714        4.9453141835  MEMB      110             0.0000000000
     12856       110  POPC      C39           -23.9737386105       51.3525288517        3.3218566073  MEMB      110             0.0000000000
     12857       110  POPC      H9X           -24.9903094483       50.9392226663        3.4953001722  MEMB      110             0.0000000000
     12858       110  POPC      H9Y           -23.3670291453       50.4864706284        2.9810225332  MEMB      110             0.0000000000
     12859       110  POPC      C310          -24.2816649174       52.5255335817        2.4378792709  MEMB      110             0.0000000000
     12860       110  POPC      H10X          -23.3572834830       53.1254990913        2.2968759018  MEMB      110             0.0000000000
     12861       110  POPC      H10Y          -24.9335597244       53.2586228638        2.9593518319  MEMB      110             0.0000000000
     12862       110  POPC      C311          -24.9867877134       52.1933451395        0.9684520159  MEMB      110             0.0000000000
     12863       110  POPC      H11X          -24.3128908383       51.3790507511        0.6262413107  MEMB      110             0.0000000000
     12864       110  POPC      H11Y          -24.8173403612       53.0791022934        0.3195748589  MEMB      110             0.0000000000
     12865       110  POPC      C312          -26.4353711983       51.8715013312        1.0578199245  MEMB      110             0.0000000000
     12866       110  POPC      H12X          -27.0083196192       52.6843870930        1.5530658910  MEMB      110             0.0000000000
     12867       110  POPC      H12Y          -26.5667601415       51.1277689585        1.8726320423  MEMB      110             0.0000000000
     12868       110  POPC      C313          -27.0326520473       51.5907755405       -0.2933429166  MEMB      110             0.0000000000
     12869       110  POPC      H13X          -27.0267371081       52.5296260502       -0.8873505992  MEMB      110             0.0000000000
     12870       110  POPC      H13Y          -28.1036365277       51.3701280654       -0.0968030348  MEMB      110             0.0000000000
     12871       110  POPC      C314          -26.2820251628       50.5891277752       -1.1543614376  MEMB      110             0.0000000000
     12872       110  POPC      H14X          -25.9235973484       49.7343150152       -0.5418694325  MEMB      110             0.0000000000
     12873       110  POPC      H14Y          -25.3709072877       50.9522056382       -1.6762420806  MEMB      110             0.0000000000
     12874       110  POPC      C315          -27.2289797721       50.0269548637       -2.2451379261  MEMB      110             0.0000000000
     12875       110  POPC      H15X          -27.3131986135       50.8770950873       -2.9554125660  MEMB      110             0.0000000000
     12876       110  POPC      H15Y          -28.2316976603       49.8805315521       -1.7896838610  MEMB      110             0.0000000000
     12877       110  POPC      C316          -26.7365786274       48.8044032055       -2.9778813079  MEMB      110             0.0000000000
     12878       110  POPC      H16X          -25.6357059611       48.8716455491       -3.1115932394  MEMB      110             0.0000000000
     12879       110  POPC      H16Y          -27.1438208334       48.6819216817       -4.0042711316  MEMB      110             0.0000000000
     12880       110  POPC      H16Z          -26.9471955131       47.8628260475       -2.4270703666  MEMB      110             0.0000000000
     12881       111  POPC      N             -21.1797510555      -52.4995714831       20.7113770448  MEMB      111             0.0000000000
     12882       111  POPC      C12           -21.1774850651      -51.4957573415       19.5855857505  MEMB      111             0.0000000000
     12883       111  POPC      H12A          -20.3998043542      -51.6851252387       18.8604977052  MEMB      111             0.0000000000
     12884       111  POPC      H12B          -21.1166813815      -50.4879134755       19.9689311288  MEMB      111             0.0000000000
     12885       111  POPC      C13           -20.9860548784      -53.9181205327       20.2240072647  MEMB      111             0.0000000000
     12886       111  POPC      H13A          -20.0550276436      -53.8847859506       19.6776765868  MEMB      111             0.0000000000
     12887       111  POPC      H13B          -20.8187909288      -54.5483981922       21.0849212639  MEMB      111             0.0000000000
     12888       111  POPC      H13C          -21.9073486818      -54.1854814466       19.7278865799  MEMB      111             0.0000000000
     12889       111  POPC      C14           -20.0788051561      -52.2259755595       21.6592377555  MEMB      111             0.0000000000
     12890       111  POPC      H14A          -20.4932623664      -51.5012024730       22.3443136533  MEMB      111             0.0000000000
     12891       111  POPC      H14B          -19.8425622226      -53.1816382894       22.1034202025  MEMB      111             0.0000000000
     12892       111  POPC      H14C          -19.2659846215      -51.7043669526       21.1758670938  MEMB      111             0.0000000000
     12893       111  POPC      C15           -22.4344621024      -52.5218434966       21.5212889989  MEMB      111             0.0000000000
     12894       111  POPC      H15A          -23.3126207613      -52.6561807295       20.9071304724  MEMB      111             0.0000000000
     12895       111  POPC      H15B          -22.5436824011      -51.5452676368       21.9693632537  MEMB      111             0.0000000000
     12896       111  POPC      H15C          -22.3253044961      -53.1841256477       22.3673784198  MEMB      111             0.0000000000
     12897       111  POPC      C11           -22.5447112648      -51.6342447909       18.7198105720  MEMB      111             0.0000000000
     12898       111  POPC      H11A          -22.3751486392      -51.0058373967       17.8194364249  MEMB      111             0.0000000000
     12899       111  POPC      H11B          -23.3786203790      -51.3027945751       19.3748352140  MEMB      111             0.0000000000
     12900       111  POPC      P             -24.0398847857      -53.2135492628       17.3084132153  MEMB      111             0.0000000000
     12901       111  POPC      O13           -24.0918376850      -52.1918587078       16.2337681752  MEMB      111             0.0000000000
     12902       111  POPC      O14           -25.2381397756      -53.2312223371       18.1865023434  MEMB      111             0.0000000000
     12903       111  POPC      O12           -22.7774125062      -52.9890469943       18.2055451915  MEMB      111             0.0000000000
     12904       111  POPC      O11           -23.8062679140      -54.5732746018       16.6444636448  MEMB      111             0.0000000000
     12905       111  POPC      C1            -23.6064902677      -55.7579403084       17.4873434401  MEMB      111             0.0000000000
     12906       111  POPC      HA            -24.2518037117      -56.6278725862       17.2401407880  MEMB      111             0.0000000000
     12907       111  POPC      HB            -23.7934329673      -55.7190816684       18.5818128628  MEMB      111             0.0000000000
     12908       111  POPC      C2            -22.1045639274      -56.3079433915       17.3363337961  MEMB      111             0.0000000000
     12909       111  POPC      HS            -22.0203520218      -56.9513301313       18.2381559031  MEMB      111             0.0000000000
     12910       111  POPC      O21           -21.2055040569      -55.2515275910       17.2907716760  MEMB      111             0.0000000000
     12911       111  POPC      C21           -19.9185000794      -55.5602608105       17.3264222102  MEMB      111             0.0000000000
     12912       111  POPC      O22           -19.3941871264      -56.6362607790       17.6374724360  MEMB      111             0.0000000000
     12913       111  POPC      C22           -19.0986561934      -54.2640442974       17.1144551266  MEMB      111             0.0000000000
     12914       111  POPC      H2R           -18.1762686574      -54.3945975010       16.5090806261  MEMB      111             0.0000000000
     12915       111  POPC      H2S           -18.8697266745      -53.8168879367       18.1053959690  MEMB      111             0.0000000000
     12916       111  POPC      C3            -22.0154370017      -57.1593860002       16.0133160620  MEMB      111             0.0000000000
     12917       111  POPC      HX            -22.7066284425      -58.0278314248       15.9645503591  MEMB      111             0.0000000000
     12918       111  POPC      HY            -20.9949685888      -57.5974072589       16.0465196029  MEMB      111             0.0000000000
     12919       111  POPC      O31           -22.0469098222      -56.3681587304       14.8542049992  MEMB      111             0.0000000000
     12920       111  POPC      C31           -22.9844735664      -56.5826931059       13.9444884171  MEMB      111             0.0000000000
     12921       111  POPC      O32           -23.7247858978      -57.5676381703       13.8539173214  MEMB      111             0.0000000000
     12922       111  POPC      C32           -22.8974928463      -55.4264302198       12.9119736572  MEMB      111             0.0000000000
     12923       111  POPC      H2X           -23.1880459872      -55.8161208392       11.9129538776  MEMB      111             0.0000000000
     12924       111  POPC      H2Y           -21.8651731045      -55.0987136829       12.6645090833  MEMB      111             0.0000000000
     12925       111  POPC      C23           -19.9365953832      -53.1751969369       16.3979779033  MEMB      111             0.0000000000
     12926       111  POPC      H3R           -20.7967358932      -52.8360624786       17.0139867960  MEMB      111             0.0000000000
     12927       111  POPC      H3S           -20.3663804709      -53.5751900185       15.4547855964  MEMB      111             0.0000000000
     12928       111  POPC      C24           -19.0791198599      -51.9063769125       16.1206058093  MEMB      111             0.0000000000
     12929       111  POPC      H4R           -18.3760112868      -52.0404162201       15.2709040743  MEMB      111             0.0000000000
     12930       111  POPC      H4S           -18.5730574001      -51.6606579909       17.0786472643  MEMB      111             0.0000000000
     12931       111  POPC      C25           -19.8657344179      -50.5543799995       15.8059024603  MEMB      111             0.0000000000
     12932       111  POPC      H5R           -19.1661595992      -49.6916697572       15.7804713508  MEMB      111             0.0000000000
     12933       111  POPC      H5S           -20.6089740398      -50.1953570938       16.5495544729  MEMB      111             0.0000000000
     12934       111  POPC      C26           -20.5985552172      -50.6636346107       14.4629989233  MEMB      111             0.0000000000
     12935       111  POPC      H6R           -21.4599885199      -49.9718895879       14.3457699336  MEMB      111             0.0000000000
     12936       111  POPC      H6S           -20.8860239353      -51.7192128042       14.2695117131  MEMB      111             0.0000000000
     12937       111  POPC      C27           -19.5479227062      -50.2985194498       13.3769123630  MEMB      111             0.0000000000
     12938       111  POPC      H7R           -18.7048794405      -51.0183637463       13.4505549875  MEMB      111             0.0000000000
     12939       111  POPC      H7S           -19.2264373365      -49.2615584119       13.6128786792  MEMB      111             0.0000000000
     12940       111  POPC      C28           -19.9687370752      -50.3453215600       11.8733842931  MEMB      111             0.0000000000
     12941       111  POPC      H8R           -19.2031192641      -49.9239980275       11.1873547045  MEMB      111             0.0000000000
     12942       111  POPC      H8S           -20.8445623827      -49.6623209528       11.8457929397  MEMB      111             0.0000000000
     12943       111  POPC      C29           -20.4921299661      -51.6601642857       11.4706662857  MEMB      111             0.0000000000
     12944       111  POPC      H91           -21.0603905042      -52.2782443577       12.1813402277  MEMB      111             0.0000000000
     12945       111  POPC      C210          -20.1371489392      -52.3251088170       10.3686598201  MEMB      111             0.0000000000
     12946       111  POPC      H101          -20.4929352034      -53.3422090141       10.1474736581  MEMB      111             0.0000000000
     12947       111  POPC      C211          -19.0980463512      -51.8488508941        9.3729670324  MEMB      111             0.0000000000
     12948       111  POPC      H11R          -18.2463161960      -51.3320691535        9.8647125020  MEMB      111             0.0000000000
     12949       111  POPC      H11S          -19.6053897982      -51.2492936523        8.5871840166  MEMB      111             0.0000000000
     12950       111  POPC      C212          -18.4356049565      -53.0709555735        8.7356592263  MEMB      111             0.0000000000
     12951       111  POPC      H12R          -17.8220265062      -53.6501699432        9.4583995867  MEMB      111             0.0000000000
     12952       111  POPC      H12S          -17.8045060751      -52.6257357593        7.9370270753  MEMB      111             0.0000000000
     12953       111  POPC      C213          -19.2645428123      -54.1092917456        7.9399387567  MEMB      111             0.0000000000
     12954       111  POPC      H13R          -20.1520678646      -54.4707259707        8.5020649436  MEMB      111             0.0000000000
     12955       111  POPC      H13S          -18.5368069817      -54.9485660850        7.9583877749  MEMB      111             0.0000000000
     12956       111  POPC      C214          -19.7901085636      -53.8208762165        6.5589664358  MEMB      111             0.0000000000
     12957       111  POPC      H14R          -18.9473217758      -53.3306393155        6.0263321533  MEMB      111             0.0000000000
     12958       111  POPC      H14S          -20.5953814975      -53.0682983165        6.6985470115  MEMB      111             0.0000000000
     12959       111  POPC      C215          -20.3144223605      -54.9153683260        5.6403812775  MEMB      111             0.0000000000
     12960       111  POPC      H15R          -20.6728283005      -54.5373307391        4.6590791581  MEMB      111             0.0000000000
     12961       111  POPC      H15S          -21.1248587671      -55.4865799204        6.1416108077  MEMB      111             0.0000000000
     12962       111  POPC      C216          -19.2323904109      -55.9145487100        5.0560361388  MEMB      111             0.0000000000
     12963       111  POPC      H16R          -19.3763330086      -56.9075023814        5.5331572656  MEMB      111             0.0000000000
     12964       111  POPC      H16S          -18.1899065724      -55.5399092756        5.1408524699  MEMB      111             0.0000000000
     12965       111  POPC      C217          -19.4393523202      -56.2313323450        3.5672367445  MEMB      111             0.0000000000
     12966       111  POPC      H17R          -19.0756108610      -55.3371156790        3.0173371781  MEMB      111             0.0000000000
     12967       111  POPC      H17S          -20.5082815740      -56.3806405043        3.3037626416  MEMB      111             0.0000000000
     12968       111  POPC      C218          -18.5828307944      -57.3980101584        2.8971083402  MEMB      111             0.0000000000
     12969       111  POPC      H18R          -18.5563246018      -57.1891109087        1.8062468962  MEMB      111             0.0000000000
     12970       111  POPC      H18S          -19.1131066292      -58.3690959504        2.9977102832  MEMB      111             0.0000000000
     12971       111  POPC      H18T          -17.5376459284      -57.3033850165        3.2617395796  MEMB      111             0.0000000000
     12972       111  POPC      C33           -23.6946739808      -54.2247172035       13.4140193773  MEMB      111             0.0000000000
     12973       111  POPC      H3X           -22.9087005501      -53.7408594158       14.0324433020  MEMB      111             0.0000000000
     12974       111  POPC      H3Y           -24.5201050165      -54.5121608887       14.0998479263  MEMB      111             0.0000000000
     12975       111  POPC      C34           -24.0691441888      -53.2556155552       12.2421800999  MEMB      111             0.0000000000
     12976       111  POPC      H4X           -23.2093016327      -53.0354830557       11.5739487571  MEMB      111             0.0000000000
     12977       111  POPC      H4Y           -24.4243300023      -52.3223335789       12.7291592046  MEMB      111             0.0000000000
     12978       111  POPC      C35           -25.2588538695      -53.8335313873       11.4881035856  MEMB      111             0.0000000000
     12979       111  POPC      H5X           -25.9242174414      -54.1718265470       12.3110061038  MEMB      111             0.0000000000
     12980       111  POPC      H5Y           -25.0551931913      -54.7547154971       10.9013645394  MEMB      111             0.0000000000
     12981       111  POPC      C36           -25.9711284810      -52.7365655069       10.6458034801  MEMB      111             0.0000000000
     12982       111  POPC      H6X           -26.3443941168      -51.9506909408       11.3367412471  MEMB      111             0.0000000000
     12983       111  POPC      H6Y           -26.8945434945      -53.1892410278       10.2254337485  MEMB      111             0.0000000000
     12984       111  POPC      C37           -25.1257945850      -52.2009121245        9.4585954452  MEMB      111             0.0000000000
     12985       111  POPC      H7X           -24.3181009009      -51.5865906297        9.9108800095  MEMB      111             0.0000000000
     12986       111  POPC      H7Y           -25.8342795470      -51.5394715853        8.9155796157  MEMB      111             0.0000000000
     12987       111  POPC      C38           -24.4903742909      -53.3015858347        8.5734133189  MEMB      111             0.0000000000
     12988       111  POPC      H8X           -25.3415903513      -53.7434871275        8.0126315018  MEMB      111             0.0000000000
     12989       111  POPC      H8Y           -24.0841989934      -54.0514543320        9.2854803135  MEMB      111             0.0000000000
     12990       111  POPC      C39           -23.4739697817      -52.9470157412        7.5149666630  MEMB      111             0.0000000000
     12991       111  POPC      H9X           -23.3303442195      -53.8384992339        6.8677029667  MEMB      111             0.0000000000
     12992       111  POPC      H9Y           -22.5614799153      -52.7238159492        8.1081490081  MEMB      111             0.0000000000
     12993       111  POPC      C310          -23.9587203127      -51.7549751359        6.6282338989  MEMB      111             0.0000000000
     12994       111  POPC      H10X          -23.8751876546      -50.8416811663        7.2553202637  MEMB      111             0.0000000000
     12995       111  POPC      H10Y          -25.0183726438      -51.8635212826        6.3125201846  MEMB      111             0.0000000000
     12996       111  POPC      C311          -22.9692314469      -51.6484240170        5.4076961957  MEMB      111             0.0000000000
     12997       111  POPC      H11X          -21.9067257944      -51.5531864506        5.7180711668  MEMB      111             0.0000000000
     12998       111  POPC      H11Y          -23.1950199931      -50.7162758534        4.8469463899  MEMB      111             0.0000000000
     12999       111  POPC      C312          -22.8927422664      -52.8203133661        4.4500773931  MEMB      111             0.0000000000
     13000       111  POPC      H12X          -22.7054163825      -53.7517609065        5.0259554261  MEMB      111             0.0000000000
     13001       111  POPC      H12Y          -22.0280982004      -52.7326435421        3.7579608518  MEMB      111             0.0000000000
     13002       111  POPC      C313          -24.0370298623      -52.8891215001        3.5070882616  MEMB      111             0.0000000000
     13003       111  POPC      H13X          -24.1457980723      -52.0083632660        2.8386901858  MEMB      111             0.0000000000
     13004       111  POPC      H13Y          -24.8760538014      -53.1903767858        4.1701149114  MEMB      111             0.0000000000
     13005       111  POPC      C314          -23.8589573420      -54.0936241663        2.5735696246  MEMB      111             0.0000000000
     13006       111  POPC      H14X          -22.8012543931      -54.1200638822        2.2346189003  MEMB      111             0.0000000000
     13007       111  POPC      H14Y          -24.5456504771      -53.9219843350        1.7172318752  MEMB      111             0.0000000000
     13008       111  POPC      C315          -24.1876671211      -55.4437799944        3.1614929974  MEMB      111             0.0000000000
     13009       111  POPC      H15X          -25.2630835550      -55.5215569263        3.4293572247  MEMB      111             0.0000000000
     13010       111  POPC      H15Y          -23.5820839231      -55.7169364771        4.0519846980  MEMB      111             0.0000000000
     13011       111  POPC      C316          -24.0106118315      -56.6167989129        2.1389813357  MEMB      111             0.0000000000
     13012       111  POPC      H16X          -23.0032012429      -56.5356137892        1.6776207082  MEMB      111             0.0000000000
     13013       111  POPC      H16Y          -24.7384614524      -56.6606195913        1.3007487549  MEMB      111             0.0000000000
     13014       111  POPC      H16Z          -24.1856260358      -57.5762501755        2.6710942483  MEMB      111             0.0000000000
     13015       112  POPC      N              25.2796380799       51.9435087170       20.4852258789  MEMB      112             0.0000000000
     13016       112  POPC      C12            24.1210863152       52.9453503570       20.3643593672  MEMB      112             0.0000000000
     13017       112  POPC      H12A           24.4154868625       53.7963792822       20.9605792863  MEMB      112             0.0000000000
     13018       112  POPC      H12B           23.2555708700       52.4138426945       20.7314868964  MEMB      112             0.0000000000
     13019       112  POPC      C13            24.9799371965       50.7428996523       19.6673109332  MEMB      112             0.0000000000
     13020       112  POPC      H13A           25.4317645486       49.9382843685       20.2284224091  MEMB      112             0.0000000000
     13021       112  POPC      H13B           23.9154719834       50.5667021773       19.6196845844  MEMB      112             0.0000000000
     13022       112  POPC      H13C           25.4642824931       50.8258963084       18.7055827214  MEMB      112             0.0000000000
     13023       112  POPC      C14            26.6245656054       52.5469348404       20.0350309496  MEMB      112             0.0000000000
     13024       112  POPC      H14A           26.7077614524       52.6505572860       18.9632376491  MEMB      112             0.0000000000
     13025       112  POPC      H14B           26.8260596670       53.4700420445       20.5581688464  MEMB      112             0.0000000000
     13026       112  POPC      H14C           27.4088301189       51.9247944975       20.4403343234  MEMB      112             0.0000000000
     13027       112  POPC      C15            25.4576428408       51.5921506369       21.9804571629  MEMB      112             0.0000000000
     13028       112  POPC      H15A           26.1953477132       50.8253257661       22.1653117673  MEMB      112             0.0000000000
     13029       112  POPC      H15B           24.5414364694       51.3157188549       22.4810082598  MEMB      112             0.0000000000
     13030       112  POPC      H15C           25.8359375160       52.4812570344       22.4629328802  MEMB      112             0.0000000000
     13031       112  POPC      C11            23.9032892109       53.6242932223       18.9137317678  MEMB      112             0.0000000000
     13032       112  POPC      H11A           24.7214455897       54.3239974455       18.6392230294  MEMB      112             0.0000000000
     13033       112  POPC      H11B           23.0968913334       54.3802346217       19.0259638744  MEMB      112             0.0000000000
     13034       112  POPC      P              22.1899499884       52.1025295662       17.5639482729  MEMB      112             0.0000000000
     13035       112  POPC      O13            21.1312115897       53.1238675021       17.6542038878  MEMB      112             0.0000000000
     13036       112  POPC      O14            22.1620739201       50.9515212728       18.4933382225  MEMB      112             0.0000000000
     13037       112  POPC      O12            23.6337053965       52.7889519013       17.7542799191  MEMB      112             0.0000000000
     13038       112  POPC      O11            22.1238586590       51.6491245295       16.0881135852  MEMB      112             0.0000000000
     13039       112  POPC      C1             23.3318436093       51.1132443964       15.5996984981  MEMB      112             0.0000000000
     13040       112  POPC      HA             23.0093339015       50.4092159564       14.8030478432  MEMB      112             0.0000000000
     13041       112  POPC      HB             23.8860812200       50.3877776607       16.2328175632  MEMB      112             0.0000000000
     13042       112  POPC      C2             24.2612535567       52.1071258905       14.8665363859  MEMB      112             0.0000000000
     13043       112  POPC      HS             24.7781190989       52.6370949019       15.6949712484  MEMB      112             0.0000000000
     13044       112  POPC      O21            23.5580677818       52.8505324345       13.9191575453  MEMB      112             0.0000000000
     13045       112  POPC      C21            23.9213559416       54.0924606509       13.7959286407  MEMB      112             0.0000000000
     13046       112  POPC      O22            24.8669425239       54.6566105086       14.3719420377  MEMB      112             0.0000000000
     13047       112  POPC      C22            22.9170980150       54.6679504167       12.8930072127  MEMB      112             0.0000000000
     13048       112  POPC      H2R            22.8785195611       55.7581254787       13.1036033157  MEMB      112             0.0000000000
     13049       112  POPC      H2S            21.9168565269       54.2930927757       13.1984902576  MEMB      112             0.0000000000
     13050       112  POPC      C3             25.3368645998       51.3729248752       14.1421783082  MEMB      112             0.0000000000
     13051       112  POPC      HX             25.8999254046       50.6170987421       14.7304046242  MEMB      112             0.0000000000
     13052       112  POPC      HY             26.1692434904       52.0936721847       13.9938897216  MEMB      112             0.0000000000
     13053       112  POPC      O31            24.8467030893       50.5995916343       13.0519341500  MEMB      112             0.0000000000
     13054       112  POPC      C31            25.5415649937       50.6355823296       11.8680757155  MEMB      112             0.0000000000
     13055       112  POPC      O32            26.5017837747       51.3468817625       11.6564786694  MEMB      112             0.0000000000
     13056       112  POPC      C32            24.8649037460       49.6398991481       11.0403811775  MEMB      112             0.0000000000
     13057       112  POPC      H2X            23.8666782058       49.3456733434       11.4293513700  MEMB      112             0.0000000000
     13058       112  POPC      H2Y            25.5183855952       48.7414110694       11.0390065678  MEMB      112             0.0000000000
     13059       112  POPC      C23            23.4606758831       54.5269694212       11.4386704159  MEMB      112             0.0000000000
     13060       112  POPC      H3R            23.6510212051       53.4512982147       11.2361332672  MEMB      112             0.0000000000
     13061       112  POPC      H3S            24.4859723090       54.9476533713       11.3604822851  MEMB      112             0.0000000000
     13062       112  POPC      C24            22.6102187887       55.1606136405       10.3158426838  MEMB      112             0.0000000000
     13063       112  POPC      H4R            23.2088162490       55.0958804863        9.3821333968  MEMB      112             0.0000000000
     13064       112  POPC      H4S            22.4442104830       56.2394594340       10.5228551655  MEMB      112             0.0000000000
     13065       112  POPC      C25            21.2030361195       54.5433484609       10.0918000018  MEMB      112             0.0000000000
     13066       112  POPC      H5R            20.4697935893       54.7421905431       10.9024405679  MEMB      112             0.0000000000
     13067       112  POPC      H5S            21.3384979777       53.4408384467       10.0707576927  MEMB      112             0.0000000000
     13068       112  POPC      C26            20.4179378603       54.8491326323        8.7686202735  MEMB      112             0.0000000000
     13069       112  POPC      H6R            20.0688654112       55.9033947822        8.8002572177  MEMB      112             0.0000000000
     13070       112  POPC      H6S            19.5294483273       54.1826812185        8.7960023151  MEMB      112             0.0000000000
     13071       112  POPC      C27            21.2266238843       54.5694552677        7.4973797052  MEMB      112             0.0000000000
     13072       112  POPC      H7R            21.8428855481       53.6624371223        7.6758747115  MEMB      112             0.0000000000
     13073       112  POPC      H7S            21.7644228370       55.5083918244        7.2454055911  MEMB      112             0.0000000000
     13074       112  POPC      C28            20.4603784159       54.1125233888        6.2418517267  MEMB      112             0.0000000000
     13075       112  POPC      H8R            19.5449836063       54.7396439711        6.1862342232  MEMB      112             0.0000000000
     13076       112  POPC      H8S            20.0459713169       53.1011218293        6.4409867839  MEMB      112             0.0000000000
     13077       112  POPC      C29            21.1631469035       54.0615348619        4.9230356037  MEMB      112             0.0000000000
     13078       112  POPC      H91            21.9339959544       54.8450253295        4.8790548378  MEMB      112             0.0000000000
     13079       112  POPC      C210           21.0445891285       53.0631890810        3.9390649158  MEMB      112             0.0000000000
     13080       112  POPC      H101           21.7273879498       53.0492846601        3.0767467279  MEMB      112             0.0000000000
     13081       112  POPC      C211           20.2136710968       51.7651687300        3.9828979342  MEMB      112             0.0000000000
     13082       112  POPC      H11R           19.4667292248       51.7190893220        3.1617544560  MEMB      112             0.0000000000
     13083       112  POPC      H11S           19.6503558206       51.5084757343        4.9054512554  MEMB      112             0.0000000000
     13084       112  POPC      C212           21.1021965840       50.5005019479        3.7909736422  MEMB      112             0.0000000000
     13085       112  POPC      H12R           20.5002103585       49.6813556772        4.2392297114  MEMB      112             0.0000000000
     13086       112  POPC      H12S           22.0471976165       50.5633807360        4.3717839791  MEMB      112             0.0000000000
     13087       112  POPC      C213           21.5714282543       50.3354998347        2.3610917626  MEMB      112             0.0000000000
     13088       112  POPC      H13R           21.6195792148       51.3358824457        1.8802213510  MEMB      112             0.0000000000
     13089       112  POPC      H13S           20.8357604775       49.7381613513        1.7811781952  MEMB      112             0.0000000000
     13090       112  POPC      C214           22.8888980203       49.6114843695        2.3135811614  MEMB      112             0.0000000000
     13091       112  POPC      H14R           22.5786591371       48.5590533628        2.4881140868  MEMB      112             0.0000000000
     13092       112  POPC      H14S           23.5395503162       49.9708326055        3.1393169854  MEMB      112             0.0000000000
     13093       112  POPC      C215           23.6230282036       49.8061542202        0.9308139601  MEMB      112             0.0000000000
     13094       112  POPC      H15R           23.9026201428       50.8656569656        0.7475009616  MEMB      112             0.0000000000
     13095       112  POPC      H15S           22.9875134336       49.4600553493        0.0878095651  MEMB      112             0.0000000000
     13096       112  POPC      C216           24.9755421248       49.0548678324        0.7777673918  MEMB      112             0.0000000000
     13097       112  POPC      H16R           25.6260159366       48.9875819262        1.6759183220  MEMB      112             0.0000000000
     13098       112  POPC      H16S           25.4290288648       49.8073459978        0.0977318785  MEMB      112             0.0000000000
     13099       112  POPC      C217           24.8965907774       47.6153311139        0.0282810532  MEMB      112             0.0000000000
     13100       112  POPC      H17R           24.6360192653       47.9006883828       -1.0133502333  MEMB      112             0.0000000000
     13101       112  POPC      H17S           24.0097177084       47.0229610594        0.3395286074  MEMB      112             0.0000000000
     13102       112  POPC      C218           26.1057090193       46.6562001530        0.1411776967  MEMB      112             0.0000000000
     13103       112  POPC      H18R           26.3183971176       46.2703352238        1.1610756318  MEMB      112             0.0000000000
     13104       112  POPC      H18S           26.9824182696       47.1835024665       -0.2920142369  MEMB      112             0.0000000000
     13105       112  POPC      H18T           25.8648848494       45.7980533977       -0.5220795429  MEMB      112             0.0000000000
     13106       112  POPC      C33            24.6618498687       50.1796455883        9.6104547275  MEMB      112             0.0000000000
     13107       112  POPC      H3X            24.7301696899       51.2882439484        9.6362039469  MEMB      112             0.0000000000
     13108       112  POPC      H3Y            23.7373257788       49.7888299201        9.1341779062  MEMB      112             0.0000000000
     13109       112  POPC      C34            25.8805801660       49.8559497894        8.6801436782  MEMB      112             0.0000000000
     13110       112  POPC      H4X            26.1928091403       48.7923983260        8.6046950876  MEMB      112             0.0000000000
     13111       112  POPC      H4Y            26.6862317863       50.5305211048        9.0409757973  MEMB      112             0.0000000000
     13112       112  POPC      C35            25.6990544735       50.3241093913        7.2302236069  MEMB      112             0.0000000000
     13113       112  POPC      H5X            24.7640435661       49.8035022659        6.9318218311  MEMB      112             0.0000000000
     13114       112  POPC      H5Y            26.6104138976       49.9134915469        6.7453140077  MEMB      112             0.0000000000
     13115       112  POPC      C36            25.3446292404       51.8593628137        7.1227790171  MEMB      112             0.0000000000
     13116       112  POPC      H6X            25.9986576602       52.5029604503        7.7491578759  MEMB      112             0.0000000000
     13117       112  POPC      H6Y            24.2754993591       51.9782243977        7.4005457190  MEMB      112             0.0000000000
     13118       112  POPC      C37            25.6015925566       52.2331117365        5.5520741761  MEMB      112             0.0000000000
     13119       112  POPC      H7X            25.0041889253       51.5870237658        4.8738407686  MEMB      112             0.0000000000
     13120       112  POPC      H7Y            26.6732467108       51.9536153826        5.4639829623  MEMB      112             0.0000000000
     13121       112  POPC      C38            25.3260944188       53.6967385048        5.1486498315  MEMB      112             0.0000000000
     13122       112  POPC      H8X            25.8809501809       54.1773884850        5.9825756923  MEMB      112             0.0000000000
     13123       112  POPC      H8Y            24.2411447746       53.8733431328        5.3099465168  MEMB      112             0.0000000000
     13124       112  POPC      C39            26.0353944445       54.1360695226        3.8529657669  MEMB      112             0.0000000000
     13125       112  POPC      H9X            26.9112798182       53.4747007895        3.6805215790  MEMB      112             0.0000000000
     13126       112  POPC      H9Y            26.4722478965       55.1517107975        3.9622946206  MEMB      112             0.0000000000
     13127       112  POPC      C310           25.1623315017       54.0913227172        2.6227887124  MEMB      112             0.0000000000
     13128       112  POPC      H10X           24.2933927923       54.7540834751        2.8228259751  MEMB      112             0.0000000000
     13129       112  POPC      H10Y           24.6717620297       53.0987992888        2.5302692354  MEMB      112             0.0000000000
     13130       112  POPC      C311           25.9308138192       54.3510403838        1.3193410233  MEMB      112             0.0000000000
     13131       112  POPC      H11X           26.8902761594       53.7914227629        1.3434451005  MEMB      112             0.0000000000
     13132       112  POPC      H11Y           25.9856321088       55.4605106514        1.2995525337  MEMB      112             0.0000000000
     13133       112  POPC      C312           25.1780463239       53.9372863614       -0.0323848831  MEMB      112             0.0000000000
     13134       112  POPC      H12X           24.7835532696       52.9106163379        0.1246030976  MEMB      112             0.0000000000
     13135       112  POPC      H12Y           25.9262207434       53.9550834159       -0.8535065202  MEMB      112             0.0000000000
     13136       112  POPC      C313           24.0096033606       54.9335681189       -0.2674409584  MEMB      112             0.0000000000
     13137       112  POPC      H13X           24.4037026834       55.8667156925       -0.7237772304  MEMB      112             0.0000000000
     13138       112  POPC      H13Y           23.5806464246       55.0741817976        0.7477168626  MEMB      112             0.0000000000
     13139       112  POPC      C314           22.9674426360       54.4115958410       -1.2903475452  MEMB      112             0.0000000000
     13140       112  POPC      H14X           23.4121726420       54.1680666526       -2.2788958086  MEMB      112             0.0000000000
     13141       112  POPC      H14Y           22.3700634560       55.3348478354       -1.4486662587  MEMB      112             0.0000000000
     13142       112  POPC      C315           22.1237774903       53.2697776427       -0.7848318101  MEMB      112             0.0000000000
     13143       112  POPC      H15X           21.6044639038       53.6008597429        0.1398419097  MEMB      112             0.0000000000
     13144       112  POPC      H15Y           22.8287031199       52.4626138305       -0.4917653564  MEMB      112             0.0000000000
     13145       112  POPC      C316           21.1628589694       52.5215797187       -1.7713025739  MEMB      112             0.0000000000
     13146       112  POPC      H16X           20.6254884113       53.2372152638       -2.4296502177  MEMB      112             0.0000000000
     13147       112  POPC      H16Y           20.5033860011       51.9213441426       -1.1086309571  MEMB      112             0.0000000000
     13148       112  POPC      H16Z           21.6287443915       51.7115965361       -2.3723024489  MEMB      112             0.0000000000
     13149       113  POPC      N             -58.5549060950      -12.5274653312       20.6854831625  MEMB      113             0.0000000000
     13150       113  POPC      C12           -58.2958730434      -13.9381926521       20.1968094785  MEMB      113             0.0000000000
     13151       113  POPC      H12A          -59.1725139994      -14.5414378680       20.3811890860  MEMB      113             0.0000000000
     13152       113  POPC      H12B          -57.6011290536      -14.3874321474       20.8910102162  MEMB      113             0.0000000000
     13153       113  POPC      C13           -59.4798298654      -11.7490708080       19.7613024347  MEMB      113             0.0000000000
     13154       113  POPC      H13A          -60.4854284131      -12.1362859842       19.6889426235  MEMB      113             0.0000000000
     13155       113  POPC      H13B          -59.5580571915      -10.7323095689       20.1169386668  MEMB      113             0.0000000000
     13156       113  POPC      H13C          -59.1221146284      -11.8527147550       18.7475481427  MEMB      113             0.0000000000
     13157       113  POPC      C14           -59.2469713724      -12.6266541229       21.9958267959  MEMB      113             0.0000000000
     13158       113  POPC      H14A          -58.6365586614      -13.0448499503       22.7825340174  MEMB      113             0.0000000000
     13159       113  POPC      H14B          -59.5073102781      -11.6230573298       22.2981793043  MEMB      113             0.0000000000
     13160       113  POPC      H14C          -60.1682329155      -13.1859912486       21.9264075995  MEMB      113             0.0000000000
     13161       113  POPC      C15           -57.2524336608      -11.7777765289       20.9706082391  MEMB      113             0.0000000000
     13162       113  POPC      H15A          -56.5605418839      -11.7654075723       20.1414322102  MEMB      113             0.0000000000
     13163       113  POPC      H15B          -56.6882630556      -12.2240814530       21.7761660850  MEMB      113             0.0000000000
     13164       113  POPC      H15C          -57.4188604673      -10.7456765600       21.2416645300  MEMB      113             0.0000000000
     13165       113  POPC      C11           -57.7646576927      -14.2213893638       18.8128631368  MEMB      113             0.0000000000
     13166       113  POPC      H11A          -58.4313635666      -13.8056684814       18.0273693611  MEMB      113             0.0000000000
     13167       113  POPC      H11B          -57.8350427101      -15.3085692802       18.5951320504  MEMB      113             0.0000000000
     13168       113  POPC      P             -55.9445230256      -13.0868045465       17.2558821330  MEMB      113             0.0000000000
     13169       113  POPC      O13           -54.6252568486      -12.7281190858       17.5543460026  MEMB      113             0.0000000000
     13170       113  POPC      O14           -56.8640325370      -11.9775943786       16.9645486975  MEMB      113             0.0000000000
     13171       113  POPC      O12           -56.4293486233      -13.7558840633       18.6093312931  MEMB      113             0.0000000000
     13172       113  POPC      O11           -55.9857754675      -14.2236961223       16.1929986265  MEMB      113             0.0000000000
     13173       113  POPC      C1            -55.2725935518      -15.4503995072       16.4089391334  MEMB      113             0.0000000000
     13174       113  POPC      HA            -55.5981238365      -15.9451730546       17.3489126659  MEMB      113             0.0000000000
     13175       113  POPC      HB            -54.1863413226      -15.2242188667       16.4656754141  MEMB      113             0.0000000000
     13176       113  POPC      C2            -55.3759361912      -16.5641813204       15.2794168585  MEMB      113             0.0000000000
     13177       113  POPC      HS            -54.5896210834      -17.3164403194       15.5033274079  MEMB      113             0.0000000000
     13178       113  POPC      O21           -55.2391910731      -16.0251932172       13.9084331059  MEMB      113             0.0000000000
     13179       113  POPC      C21           -54.6810467066      -16.9030867874       13.0234311635  MEMB      113             0.0000000000
     13180       113  POPC      O22           -54.5269974260      -18.1207332389       13.1268506296  MEMB      113             0.0000000000
     13181       113  POPC      C22           -53.9264925182      -16.0536127224       11.9027590791  MEMB      113             0.0000000000
     13182       113  POPC      H2R           -53.0980839019      -16.6688506837       11.4910036018  MEMB      113             0.0000000000
     13183       113  POPC      H2S           -53.4587559432      -15.1860460275       12.4154687990  MEMB      113             0.0000000000
     13184       113  POPC      C3            -56.7366804921      -17.3141638214       15.3450736255  MEMB      113             0.0000000000
     13185       113  POPC      HX            -56.7670261965      -17.8973600965       16.2902100075  MEMB      113             0.0000000000
     13186       113  POPC      HY            -56.8620329567      -18.0566689651       14.5281933389  MEMB      113             0.0000000000
     13187       113  POPC      O31           -57.8725571765      -16.3669627155       15.4394152204  MEMB      113             0.0000000000
     13188       113  POPC      C31           -59.0399567744      -16.9345695408       15.4031529985  MEMB      113             0.0000000000
     13189       113  POPC      O32           -59.3344133651      -18.1144352888       15.3321200974  MEMB      113             0.0000000000
     13190       113  POPC      C32           -60.0678035219      -15.8722569038       15.3972387476  MEMB      113             0.0000000000
     13191       113  POPC      H2X           -60.1380104745      -15.5500610518       16.4581732051  MEMB      113             0.0000000000
     13192       113  POPC      H2Y           -61.0315264868      -16.2901099143       15.0353576894  MEMB      113             0.0000000000
     13193       113  POPC      C23           -54.8665274765      -15.4960412996       10.7614690057  MEMB      113             0.0000000000
     13194       113  POPC      H3R           -54.4028089547      -14.8415722678        9.9927318704  MEMB      113             0.0000000000
     13195       113  POPC      H3S           -55.6409770021      -14.9244590543       11.3163046916  MEMB      113             0.0000000000
     13196       113  POPC      C24           -55.6399382439      -16.6439989622       10.0307931197  MEMB      113             0.0000000000
     13197       113  POPC      H4R           -56.2619984641      -17.2153969968       10.7525038908  MEMB      113             0.0000000000
     13198       113  POPC      H4S           -54.9503141832      -17.4061572764        9.6090651109  MEMB      113             0.0000000000
     13199       113  POPC      C25           -56.4728917952      -16.0931942664        8.8372879175  MEMB      113             0.0000000000
     13200       113  POPC      H5R           -55.7708820128      -15.6433938970        8.1029974034  MEMB      113             0.0000000000
     13201       113  POPC      H5S           -57.1276048266      -15.2455021767        9.1323987171  MEMB      113             0.0000000000
     13202       113  POPC      C26           -57.2240216007      -17.0937878858        8.0231144691  MEMB      113             0.0000000000
     13203       113  POPC      H6R           -57.8029195417      -16.4906566033        7.2913830397  MEMB      113             0.0000000000
     13204       113  POPC      H6S           -57.9230520022      -17.6248860150        8.7040053334  MEMB      113             0.0000000000
     13205       113  POPC      C27           -56.3238203763      -18.1576113332        7.3036716475  MEMB      113             0.0000000000
     13206       113  POPC      H7R           -57.0331880953      -18.7809579495        6.7183880334  MEMB      113             0.0000000000
     13207       113  POPC      H7S           -55.8189075809      -18.9019485982        7.9558568853  MEMB      113             0.0000000000
     13208       113  POPC      C28           -55.0614981418      -17.7385481084        6.5627285967  MEMB      113             0.0000000000
     13209       113  POPC      H8R           -54.6020004858      -18.6793173833        6.1910607781  MEMB      113             0.0000000000
     13210       113  POPC      H8S           -54.2761966132      -17.1945791598        7.1299316032  MEMB      113             0.0000000000
     13211       113  POPC      C29           -55.3826448508      -16.7604724926        5.4224918775  MEMB      113             0.0000000000
     13212       113  POPC      H91           -56.0177380438      -15.9048603204        5.6955930875  MEMB      113             0.0000000000
     13213       113  POPC      C210          -54.9527216883      -16.7220858232        4.1676044046  MEMB      113             0.0000000000
     13214       113  POPC      H101          -55.3333829552      -15.9137064308        3.5260282676  MEMB      113             0.0000000000
     13215       113  POPC      C211          -54.0458914375      -17.6547161839        3.4694539788  MEMB      113             0.0000000000
     13216       113  POPC      H11R          -53.1733173806      -17.7870883846        4.1442973820  MEMB      113             0.0000000000
     13217       113  POPC      H11S          -53.6673887709      -17.0962990660        2.5867167030  MEMB      113             0.0000000000
     13218       113  POPC      C212          -54.7236085617      -19.0029643639        3.0407797071  MEMB      113             0.0000000000
     13219       113  POPC      H12R          -54.6778450407      -19.8113000088        3.8015828213  MEMB      113             0.0000000000
     13220       113  POPC      H12S          -54.1366027750      -19.3953826041        2.1830201130  MEMB      113             0.0000000000
     13221       113  POPC      C213          -56.1596590816      -18.9343471379        2.4099273193  MEMB      113             0.0000000000
     13222       113  POPC      H13R          -56.9432694131      -18.4293592656        3.0142969509  MEMB      113             0.0000000000
     13223       113  POPC      H13S          -56.5604845368      -19.9695686479        2.4543777486  MEMB      113             0.0000000000
     13224       113  POPC      C214          -56.2568453383      -18.4709095477        0.9929659670  MEMB      113             0.0000000000
     13225       113  POPC      H14R          -55.4653360638      -19.0591133640        0.4812524664  MEMB      113             0.0000000000
     13226       113  POPC      H14S          -55.9044148080      -17.4217190884        0.8964621151  MEMB      113             0.0000000000
     13227       113  POPC      C215          -57.6733180124      -18.5614371655        0.4694071856  MEMB      113             0.0000000000
     13228       113  POPC      H15R          -57.8732426965      -19.6524930715        0.4065755786  MEMB      113             0.0000000000
     13229       113  POPC      H15S          -57.7364905024      -18.0671296402       -0.5235629070  MEMB      113             0.0000000000
     13230       113  POPC      C216          -58.7923818796      -17.9360453238        1.3112154962  MEMB      113             0.0000000000
     13231       113  POPC      H16R          -58.4696708898      -17.1575724877        2.0352042220  MEMB      113             0.0000000000
     13232       113  POPC      H16S          -59.0874811231      -18.7551644728        2.0013464193  MEMB      113             0.0000000000
     13233       113  POPC      C217          -59.9857167369      -17.3773963526        0.5395121574  MEMB      113             0.0000000000
     13234       113  POPC      H17R          -60.5425081672      -18.1983672752        0.0392013350  MEMB      113             0.0000000000
     13235       113  POPC      H17S          -59.5479030460      -16.7246104856       -0.2456704278  MEMB      113             0.0000000000
     13236       113  POPC      C218          -61.0489571914      -16.7730612252        1.4932910588  MEMB      113             0.0000000000
     13237       113  POPC      H18R          -61.1919134041      -17.3637241207        2.4233457487  MEMB      113             0.0000000000
     13238       113  POPC      H18S          -62.0387306340      -16.5743504161        1.0294129131  MEMB      113             0.0000000000
     13239       113  POPC      H18T          -60.6686191506      -15.7611083515        1.7494456953  MEMB      113             0.0000000000
     13240       113  POPC      C33           -59.7306752702      -14.7588699520       14.3651335431  MEMB      113             0.0000000000
     13241       113  POPC      H3X           -58.6885387256      -14.3798639529       14.4331563352  MEMB      113             0.0000000000
     13242       113  POPC      H3Y           -60.3781737023      -13.8567225948       14.3997325304  MEMB      113             0.0000000000
     13243       113  POPC      C34           -60.0503599833      -15.2278690374       12.8808378360  MEMB      113             0.0000000000
     13244       113  POPC      H4X           -61.1126086522      -15.4517624840       12.6445743200  MEMB      113             0.0000000000
     13245       113  POPC      H4Y           -59.3967714151      -16.0848887599       12.6112818624  MEMB      113             0.0000000000
     13246       113  POPC      C35           -59.6932068178      -13.9258665312       12.0442426161  MEMB      113             0.0000000000
     13247       113  POPC      H5X           -58.6944712204      -13.5410792740       12.3422145738  MEMB      113             0.0000000000
     13248       113  POPC      H5Y           -60.3848482959      -13.1038755213       12.3275866393  MEMB      113             0.0000000000
     13249       113  POPC      C36           -59.9413312502      -14.4144603193       10.5678877984  MEMB      113             0.0000000000
     13250       113  POPC      H6X           -60.9772782152      -14.7793567248       10.4005976772  MEMB      113             0.0000000000
     13251       113  POPC      H6Y           -59.2391673489      -15.2746713181       10.5315028008  MEMB      113             0.0000000000
     13252       113  POPC      C37           -59.6759777366      -13.3894893745        9.4051997984  MEMB      113             0.0000000000
     13253       113  POPC      H7X           -58.7254534435      -12.8484129569        9.6002928330  MEMB      113             0.0000000000
     13254       113  POPC      H7Y           -60.5143246661      -12.6607426780        9.3846165868  MEMB      113             0.0000000000
     13255       113  POPC      C38           -59.5963178091      -14.0844468616        8.0181639797  MEMB      113             0.0000000000
     13256       113  POPC      H8X           -60.5966317575      -14.5348763669        7.8426469523  MEMB      113             0.0000000000
     13257       113  POPC      H8Y           -58.9718614365      -14.9996575211        8.1004113996  MEMB      113             0.0000000000
     13258       113  POPC      C39           -59.3107142254      -13.0723143093        6.8362156906  MEMB      113             0.0000000000
     13259       113  POPC      H9X           -59.9520640591      -12.1739571404        6.9624942850  MEMB      113             0.0000000000
     13260       113  POPC      H9Y           -59.6336991094      -13.6033730635        5.9153587412  MEMB      113             0.0000000000
     13261       113  POPC      C310          -57.8360030172      -12.6777623888        6.7673025757  MEMB      113             0.0000000000
     13262       113  POPC      H10X          -57.2800551221      -13.6395406490        6.7823135609  MEMB      113             0.0000000000
     13263       113  POPC      H10Y          -57.5558174494      -12.2176657085        7.7389648729  MEMB      113             0.0000000000
     13264       113  POPC      C311          -57.5783555568      -11.7344517796        5.6400060305  MEMB      113             0.0000000000
     13265       113  POPC      H11X          -56.5048281418      -11.4578726368        5.7132436608  MEMB      113             0.0000000000
     13266       113  POPC      H11Y          -58.0899095055      -10.7483108920        5.6273641242  MEMB      113             0.0000000000
     13267       113  POPC      C312          -57.8886330636      -12.2637195772        4.1774384511  MEMB      113             0.0000000000
     13268       113  POPC      H12X          -57.5685445210      -11.4394554244        3.5047918276  MEMB      113             0.0000000000
     13269       113  POPC      H12Y          -58.9551330110      -12.4834222532        3.9569177160  MEMB      113             0.0000000000
     13270       113  POPC      C313          -57.1366524725      -13.5649063344        3.8560109723  MEMB      113             0.0000000000
     13271       113  POPC      H13X          -57.3956891228      -14.3325624912        4.6162251714  MEMB      113             0.0000000000
     13272       113  POPC      H13Y          -56.0312272019      -13.4581483946        3.8869749568  MEMB      113             0.0000000000
     13273       113  POPC      C314          -57.4862025388      -14.1568679896        2.4701092336  MEMB      113             0.0000000000
     13274       113  POPC      H14X          -58.5641585788      -14.4186655318        2.5317022892  MEMB      113             0.0000000000
     13275       113  POPC      H14Y          -56.7734190119      -15.0004438190        2.3491116801  MEMB      113             0.0000000000
     13276       113  POPC      C315          -57.2886559226      -13.2101389967        1.3059527294  MEMB      113             0.0000000000
     13277       113  POPC      H15X          -57.6976660285      -12.2457490208        1.6760660831  MEMB      113             0.0000000000
     13278       113  POPC      H15Y          -57.6773000495      -13.5705877435        0.3295535633  MEMB      113             0.0000000000
     13279       113  POPC      C316          -55.7961535647      -12.8699247685        1.0666675310  MEMB      113             0.0000000000
     13280       113  POPC      H16X          -55.2945544185      -12.6613296062        2.0357941136  MEMB      113             0.0000000000
     13281       113  POPC      H16Y          -55.6992187809      -12.0031149054        0.3785055327  MEMB      113             0.0000000000
     13282       113  POPC      H16Z          -55.4332942909      -13.8214137687        0.6224553845  MEMB      113             0.0000000000
     13283       114  POPC      N              45.4501055870       30.7336564202       20.6495605174  MEMB      114             0.0000000000
     13284       114  POPC      C12            45.8944680114       32.1748873149       20.4243487230  MEMB      114             0.0000000000
     13285       114  POPC      H12A           46.9735687999       32.2160223402       20.4401344597  MEMB      114             0.0000000000
     13286       114  POPC      H12B           45.5709707841       32.8223132879       21.2259653700  MEMB      114             0.0000000000
     13287       114  POPC      C13            46.1636182178       30.1893449948       21.8177464574  MEMB      114             0.0000000000
     13288       114  POPC      H13A           45.7602783408       30.6199040116       22.7223657806  MEMB      114             0.0000000000
     13289       114  POPC      H13B           46.1838365876       29.1128089636       21.9017778449  MEMB      114             0.0000000000
     13290       114  POPC      H13C           47.2036547600       30.4783440600       21.8524370237  MEMB      114             0.0000000000
     13291       114  POPC      C14            44.0217417466       30.5622357747       20.7864795107  MEMB      114             0.0000000000
     13292       114  POPC      H14A           43.4402410464       30.8401038088       19.9198502458  MEMB      114             0.0000000000
     13293       114  POPC      H14B           43.6436712727       29.5818544226       21.0361091953  MEMB      114             0.0000000000
     13294       114  POPC      H14C           43.6490217100       31.1148355872       21.6362519385  MEMB      114             0.0000000000
     13295       114  POPC      C15            45.8461389487       29.7908744414       19.4510920002  MEMB      114             0.0000000000
     13296       114  POPC      H15A           46.9086931013       29.7231516043       19.6321787197  MEMB      114             0.0000000000
     13297       114  POPC      H15B           45.6624508223       30.3147554062       18.5246972165  MEMB      114             0.0000000000
     13298       114  POPC      H15C           45.3812748624       28.8364691341       19.6496165702  MEMB      114             0.0000000000
     13299       114  POPC      C11            45.5960821729       32.8468222883       19.0673409495  MEMB      114             0.0000000000
     13300       114  POPC      H11A           46.2100828031       32.3628935941       18.2779506002  MEMB      114             0.0000000000
     13301       114  POPC      H11B           45.9229664937       33.9011698940       19.1931136294  MEMB      114             0.0000000000
     13302       114  POPC      P              43.6272688024       32.7541619691       17.2954047821  MEMB      114             0.0000000000
     13303       114  POPC      O13            42.3526188840       32.0229958446       17.4320933115  MEMB      114             0.0000000000
     13304       114  POPC      O14            44.6343009753       32.1664061987       16.3860844748  MEMB      114             0.0000000000
     13305       114  POPC      O12            44.2045618922       32.8923977528       18.8070597291  MEMB      114             0.0000000000
     13306       114  POPC      O11            43.3277304634       34.1725283034       16.8827895413  MEMB      114             0.0000000000
     13307       114  POPC      C1             44.1454441360       34.9521098139       15.9287451641  MEMB      114             0.0000000000
     13308       114  POPC      HA             45.1659667878       34.5184996053       15.8591981022  MEMB      114             0.0000000000
     13309       114  POPC      HB             44.3528261657       35.9603736917       16.3467377334  MEMB      114             0.0000000000
     13310       114  POPC      C2             43.6012368859       35.1748655528       14.5158034535  MEMB      114             0.0000000000
     13311       114  POPC      HS             42.8130565463       35.9480518563       14.6393993400  MEMB      114             0.0000000000
     13312       114  POPC      O21            43.0420723346       33.9698803430       14.0200952297  MEMB      114             0.0000000000
     13313       114  POPC      C21            42.1549547961       34.2327205722       13.0286008541  MEMB      114             0.0000000000
     13314       114  POPC      O22            41.8350298921       35.3508434493       12.6304033421  MEMB      114             0.0000000000
     13315       114  POPC      C22            41.3976522265       32.8913988256       12.6689528979  MEMB      114             0.0000000000
     13316       114  POPC      H2R            40.7526911270       32.5628489719       13.5118055310  MEMB      114             0.0000000000
     13317       114  POPC      H2S            42.2210048482       32.2113990728       12.3623388562  MEMB      114             0.0000000000
     13318       114  POPC      C3             44.7010542877       35.6805740803       13.5450869939  MEMB      114             0.0000000000
     13319       114  POPC      HX             44.7927630992       36.7190508680       13.9291136317  MEMB      114             0.0000000000
     13320       114  POPC      HY             44.2953552580       35.7241958603       12.5117299611  MEMB      114             0.0000000000
     13321       114  POPC      O31            45.9739624978       34.9780886114       13.5675196274  MEMB      114             0.0000000000
     13322       114  POPC      C31            46.8250036935       35.4705608440       12.7347374056  MEMB      114             0.0000000000
     13323       114  POPC      O32            46.5909109128       36.2997002164       11.9106003988  MEMB      114             0.0000000000
     13324       114  POPC      C32            48.1874519120       34.8636031999       12.8147249638  MEMB      114             0.0000000000
     13325       114  POPC      H2X            48.2871101929       34.3195551812       13.7782606605  MEMB      114             0.0000000000
     13326       114  POPC      H2Y            48.9857667758       35.6349417041       12.7694306432  MEMB      114             0.0000000000
     13327       114  POPC      C23            40.5029086700       32.9588442043       11.3997224913  MEMB      114             0.0000000000
     13328       114  POPC      H3R            39.8427766633       33.8126764345       11.6633826146  MEMB      114             0.0000000000
     13329       114  POPC      H3S            39.9042388661       32.0235983141       11.3646389887  MEMB      114             0.0000000000
     13330       114  POPC      C24            41.2416015899       33.1540646227       10.0232509951  MEMB      114             0.0000000000
     13331       114  POPC      H4R            41.0916269960       32.2268570470        9.4298582147  MEMB      114             0.0000000000
     13332       114  POPC      H4S            42.3169894000       33.4295872239        9.9790981058  MEMB      114             0.0000000000
     13333       114  POPC      C25            40.6506859802       34.2797983368        9.2630088498  MEMB      114             0.0000000000
     13334       114  POPC      H5R            40.7763630876       35.1858404610        9.8935751377  MEMB      114             0.0000000000
     13335       114  POPC      H5S            39.5664143281       34.0445663922        9.2052005621  MEMB      114             0.0000000000
     13336       114  POPC      C26            41.2911008005       34.6754229280        7.8645528024  MEMB      114             0.0000000000
     13337       114  POPC      H6R            40.5324820471       35.3288206403        7.3830029583  MEMB      114             0.0000000000
     13338       114  POPC      H6S            41.4463027618       33.7121681144        7.3331647433  MEMB      114             0.0000000000
     13339       114  POPC      C27            42.6427645755       35.4616439203        7.7739037821  MEMB      114             0.0000000000
     13340       114  POPC      H7R            43.1463857307       35.3264919447        8.7549345108  MEMB      114             0.0000000000
     13341       114  POPC      H7S            42.4072075751       36.5172276098        7.5197840320  MEMB      114             0.0000000000
     13342       114  POPC      C28            43.6148381165       34.8430599810        6.6944260504  MEMB      114             0.0000000000
     13343       114  POPC      H8R            44.2867175166       35.6283561641        6.2867399272  MEMB      114             0.0000000000
     13344       114  POPC      H8S            42.9684227140       34.4650581517        5.8737051705  MEMB      114             0.0000000000
     13345       114  POPC      C29            44.6464036184       33.8451888131        7.0850745626  MEMB      114             0.0000000000
     13346       114  POPC      H91            44.5852328454       32.8288633097        6.6687331202  MEMB      114             0.0000000000
     13347       114  POPC      C210           45.7166618071       34.0803880353        7.7060592147  MEMB      114             0.0000000000
     13348       114  POPC      H101           46.3317718780       33.2260766919        8.0251070665  MEMB      114             0.0000000000
     13349       114  POPC      C211           46.2097678399       35.4432022757        8.2442734726  MEMB      114             0.0000000000
     13350       114  POPC      H11R           46.0365525479       35.4117684327        9.3412365284  MEMB      114             0.0000000000
     13351       114  POPC      H11S           45.8649316185       36.3866594316        7.7696182461  MEMB      114             0.0000000000
     13352       114  POPC      C212           47.7304373832       35.5041482156        7.9625304536  MEMB      114             0.0000000000
     13353       114  POPC      H12R           48.1786141838       34.6386131293        8.4957352803  MEMB      114             0.0000000000
     13354       114  POPC      H12S           48.1558537153       36.4346951016        8.3954562868  MEMB      114             0.0000000000
     13355       114  POPC      C213           48.2519797547       35.4947684084        6.4639872623  MEMB      114             0.0000000000
     13356       114  POPC      H13R           47.7783806491       34.7339565049        5.8073361358  MEMB      114             0.0000000000
     13357       114  POPC      H13S           49.3502117899       35.3460691886        6.5420653561  MEMB      114             0.0000000000
     13358       114  POPC      C214           47.9355183751       36.8546338663        5.8658032191  MEMB      114             0.0000000000
     13359       114  POPC      H14R           48.6134347735       37.5973841042        6.3381092676  MEMB      114             0.0000000000
     13360       114  POPC      H14S           46.8457728235       37.0435832059        5.9710362450  MEMB      114             0.0000000000
     13361       114  POPC      C215           48.2218385801       36.7930426843        4.3646939858  MEMB      114             0.0000000000
     13362       114  POPC      H15R           49.1613376105       36.2293481693        4.1805442368  MEMB      114             0.0000000000
     13363       114  POPC      H15S           48.5702604254       37.7888621176        4.0164601077  MEMB      114             0.0000000000
     13364       114  POPC      C216           47.0163843573       36.4860946063        3.4660297384  MEMB      114             0.0000000000
     13365       114  POPC      H16R           46.2238615344       37.2099060278        3.7529540715  MEMB      114             0.0000000000
     13366       114  POPC      H16S           46.6926799350       35.4281635588        3.5676099938  MEMB      114             0.0000000000
     13367       114  POPC      C217           47.2095786691       36.8301188505        1.9478493414  MEMB      114             0.0000000000
     13368       114  POPC      H17R           47.7313331686       37.7966887486        1.7810099669  MEMB      114             0.0000000000
     13369       114  POPC      H17S           46.2014346320       36.8514353815        1.4814673938  MEMB      114             0.0000000000
     13370       114  POPC      C218           47.8498892974       35.6614799702        1.1612546449  MEMB      114             0.0000000000
     13371       114  POPC      H18R           48.2799220301       36.0550040584        0.2154583502  MEMB      114             0.0000000000
     13372       114  POPC      H18S           47.1468017307       34.8063480423        1.0677763198  MEMB      114             0.0000000000
     13373       114  POPC      H18T           48.6515986627       35.1951590303        1.7729146075  MEMB      114             0.0000000000
     13374       114  POPC      C33            48.5331250493       33.8690072464       11.6871059186  MEMB      114             0.0000000000
     13375       114  POPC      H3X            49.6054384904       33.6063293004       11.8114638287  MEMB      114             0.0000000000
     13376       114  POPC      H3Y            48.3316701946       34.4187730443       10.7429167507  MEMB      114             0.0000000000
     13377       114  POPC      C34            47.5059499979       32.6299305621       11.6084374492  MEMB      114             0.0000000000
     13378       114  POPC      H4X            47.8749174185       31.8910301429       10.8653287182  MEMB      114             0.0000000000
     13379       114  POPC      H4Y            46.5059998924       33.0381671151       11.3481224367  MEMB      114             0.0000000000
     13380       114  POPC      C35            47.3866470707       31.7863965131       12.8733380587  MEMB      114             0.0000000000
     13381       114  POPC      H5X            46.9979707874       32.3200580079       13.7669025519  MEMB      114             0.0000000000
     13382       114  POPC      H5Y            48.4291571620       31.4398071695       13.0387753800  MEMB      114             0.0000000000
     13383       114  POPC      C36            46.5179794689       30.5212247268       12.6919461503  MEMB      114             0.0000000000
     13384       114  POPC      H6X            46.3833290854       30.0456018359       13.6869197580  MEMB      114             0.0000000000
     13385       114  POPC      H6Y            47.1017799369       29.8308709239       12.0462604166  MEMB      114             0.0000000000
     13386       114  POPC      C37            45.1213122030       30.6179213740       12.1227528259  MEMB      114             0.0000000000
     13387       114  POPC      H7X            44.9315428654       31.6925993088       12.3310217532  MEMB      114             0.0000000000
     13388       114  POPC      H7Y            44.3420084102       30.0534926212       12.6781145292  MEMB      114             0.0000000000
     13389       114  POPC      C38            45.0164153748       30.2657238687       10.6214571695  MEMB      114             0.0000000000
     13390       114  POPC      H8X            45.4823374373       29.2879913745       10.3739148594  MEMB      114             0.0000000000
     13391       114  POPC      H8Y            45.5465220818       30.9854369694        9.9616687948  MEMB      114             0.0000000000
     13392       114  POPC      C39            43.5253804508       30.3740040543       10.1059734158  MEMB      114             0.0000000000
     13393       114  POPC      H9X            43.0996201250       31.3255486148       10.4901761033  MEMB      114             0.0000000000
     13394       114  POPC      H9Y            42.8716616993       29.5541247150       10.4730841702  MEMB      114             0.0000000000
     13395       114  POPC      C310           43.4878653506       30.4387614924        8.5632837340  MEMB      114             0.0000000000
     13396       114  POPC      H10X           43.8245745409       31.4589471039        8.2801420544  MEMB      114             0.0000000000
     13397       114  POPC      H10Y           42.4408509910       30.1943310975        8.2833979956  MEMB      114             0.0000000000
     13398       114  POPC      C311           44.3295505768       29.4221050801        7.7854054725  MEMB      114             0.0000000000
     13399       114  POPC      H11X           44.0500438650       28.4998563549        8.3382656085  MEMB      114             0.0000000000
     13400       114  POPC      H11Y           45.4375691428       29.4899365809        7.7405235508  MEMB      114             0.0000000000
     13401       114  POPC      C312           43.9064854069       29.0763967712        6.3497450431  MEMB      114             0.0000000000
     13402       114  POPC      H12X           42.8190883124       28.8597555554        6.2793550996  MEMB      114             0.0000000000
     13403       114  POPC      H12Y           44.3763291170       28.1495788949        5.9565830403  MEMB      114             0.0000000000
     13404       114  POPC      C313           44.3545294958       30.1756584657        5.3807293961  MEMB      114             0.0000000000
     13405       114  POPC      H13X           45.4587302432       30.1988003788        5.2602055405  MEMB      114             0.0000000000
     13406       114  POPC      H13Y           44.2431245827       31.1654889264        5.8728118124  MEMB      114             0.0000000000
     13407       114  POPC      C314           43.7423374420       30.0914651983        3.9215036516  MEMB      114             0.0000000000
     13408       114  POPC      H14X           42.7206903724       30.5244790223        3.8662101852  MEMB      114             0.0000000000
     13409       114  POPC      H14Y           43.6968607100       29.0200091918        3.6312714105  MEMB      114             0.0000000000
     13410       114  POPC      C315           44.6892490879       30.6034494563        2.8508220628  MEMB      114             0.0000000000
     13411       114  POPC      H15X           44.3010684328       30.3437805813        1.8427497436  MEMB      114             0.0000000000
     13412       114  POPC      H15Y           45.6274247710       30.0083632559        2.8463649478  MEMB      114             0.0000000000
     13413       114  POPC      C316           44.9996935373       32.1641167244        2.8749567270  MEMB      114             0.0000000000
     13414       114  POPC      H16X           45.7121448096       32.2843143792        2.0309861691  MEMB      114             0.0000000000
     13415       114  POPC      H16Y           45.5653968541       32.4227412734        3.7955075562  MEMB      114             0.0000000000
     13416       114  POPC      H16Z           44.1423064036       32.8529158540        2.7175910223  MEMB      114             0.0000000000
     13417       115  POPC      N              32.9888550225      -42.5227615356       19.3512308162  MEMB      115             0.0000000000
     13418       115  POPC      C12            32.6156409619      -43.5470004123       20.3913742666  MEMB      115             0.0000000000
     13419       115  POPC      H12A           32.2826367191      -43.0312068722       21.2798927216  MEMB      115             0.0000000000
     13420       115  POPC      H12B           33.4555987702      -44.1558434370       20.6916757109  MEMB      115             0.0000000000
     13421       115  POPC      C13            31.7149292970      -42.0362554670       18.7387835061  MEMB      115             0.0000000000
     13422       115  POPC      H13A           31.0356787354      -41.8349542214       19.5539500175  MEMB      115             0.0000000000
     13423       115  POPC      H13B           31.9761684130      -41.1436127024       18.1898366400  MEMB      115             0.0000000000
     13424       115  POPC      H13C           31.3277118471      -42.8432604708       18.1344609943  MEMB      115             0.0000000000
     13425       115  POPC      C14            33.7709611982      -41.3728074469       20.0768616880  MEMB      115             0.0000000000
     13426       115  POPC      H14A           33.2182705189      -41.0761479805       20.9560237601  MEMB      115             0.0000000000
     13427       115  POPC      H14B           34.7445355226      -41.7268265854       20.3821868408  MEMB      115             0.0000000000
     13428       115  POPC      H14C           33.8564562799      -40.5480086098       19.3849098412  MEMB      115             0.0000000000
     13429       115  POPC      C15            33.8170410953      -43.0696063047       18.2777482642  MEMB      115             0.0000000000
     13430       115  POPC      H15A           33.3222067932      -43.9131643461       17.8195466564  MEMB      115             0.0000000000
     13431       115  POPC      H15B           34.7444641680      -43.4109141194       18.7134034835  MEMB      115             0.0000000000
     13432       115  POPC      H15C           34.0738377131      -42.3140264880       17.5500431798  MEMB      115             0.0000000000
     13433       115  POPC      C11            31.5526689796      -44.5600366058       20.0282440830  MEMB      115             0.0000000000
     13434       115  POPC      H11A           30.5578831720      -44.0738767552       19.9367519494  MEMB      115             0.0000000000
     13435       115  POPC      H11B           31.4896222336      -45.2292300370       20.9128493152  MEMB      115             0.0000000000
     13436       115  POPC      P              31.3649587505      -46.5786705424       18.4829134372  MEMB      115             0.0000000000
     13437       115  POPC      O13            30.2096461597      -46.9731617778       19.3326363826  MEMB      115             0.0000000000
     13438       115  POPC      O14            32.4781862651      -47.5652788794       18.4761284516  MEMB      115             0.0000000000
     13439       115  POPC      O12            31.9613892946      -45.1964948891       18.8882137423  MEMB      115             0.0000000000
     13440       115  POPC      O11            30.9815949848      -46.3136297341       16.9558653616  MEMB      115             0.0000000000
     13441       115  POPC      C1             30.3130585418      -45.0574895256       16.6247706862  MEMB      115             0.0000000000
     13442       115  POPC      HA             30.9970834884      -44.1843079477       16.6878968664  MEMB      115             0.0000000000
     13443       115  POPC      HB             29.4578831685      -44.8471069888       17.3020707366  MEMB      115             0.0000000000
     13444       115  POPC      C2             29.8553831566      -45.1792326656       15.1098614619  MEMB      115             0.0000000000
     13445       115  POPC      HS             29.0237691601      -45.9153902796       15.1383406144  MEMB      115             0.0000000000
     13446       115  POPC      O21            30.9882625157      -45.5350627055       14.2131986154  MEMB      115             0.0000000000
     13447       115  POPC      C21            31.0990457065      -46.8092082609       13.8495352825  MEMB      115             0.0000000000
     13448       115  POPC      O22            30.2753867990      -47.6740817718       14.2939481998  MEMB      115             0.0000000000
     13449       115  POPC      C22            32.3293107157      -46.9414929252       12.9945372410  MEMB      115             0.0000000000
     13450       115  POPC      H2R            33.3011843783      -46.9416843070       13.5328520194  MEMB      115             0.0000000000
     13451       115  POPC      H2S            32.4551614264      -46.1120678554       12.2661580953  MEMB      115             0.0000000000
     13452       115  POPC      C3             29.3675470279      -43.8183401623       14.5858664806  MEMB      115             0.0000000000
     13453       115  POPC      HX             30.0168876370      -42.9922582402       14.9467913721  MEMB      115             0.0000000000
     13454       115  POPC      HY             28.4357317284      -43.7590374947       15.1879666880  MEMB      115             0.0000000000
     13455       115  POPC      O31            29.1383483498      -43.7541910956       13.1495076704  MEMB      115             0.0000000000
     13456       115  POPC      C31            29.3037692431      -42.5439399513       12.6598886450  MEMB      115             0.0000000000
     13457       115  POPC      O32            29.7308728708      -41.5768343800       13.3117773392  MEMB      115             0.0000000000
     13458       115  POPC      C32            28.7767512473      -42.6023964268       11.2473263024  MEMB      115             0.0000000000
     13459       115  POPC      H2X            27.7086720924      -42.3012191352       11.3004283602  MEMB      115             0.0000000000
     13460       115  POPC      H2Y            28.7812130880      -43.6077740978       10.7745507734  MEMB      115             0.0000000000
     13461       115  POPC      C23            32.2387848405      -48.2469742210       12.1463992289  MEMB      115             0.0000000000
     13462       115  POPC      H3R            32.3353192434      -49.2090613719       12.6935649136  MEMB      115             0.0000000000
     13463       115  POPC      H3S            33.1598945971      -48.2900182552       11.5267021628  MEMB      115             0.0000000000
     13464       115  POPC      C24            31.1077405215      -48.4960567787       11.1645817142  MEMB      115             0.0000000000
     13465       115  POPC      H4R            30.1721772971      -48.3913239753       11.7545589549  MEMB      115             0.0000000000
     13466       115  POPC      H4S            31.0081822573      -49.4630604777       10.6267036983  MEMB      115             0.0000000000
     13467       115  POPC      C25            30.9279739233      -47.3859876078       10.0619204475  MEMB      115             0.0000000000
     13468       115  POPC      H5R            31.8776935875      -47.3750288734        9.4855237395  MEMB      115             0.0000000000
     13469       115  POPC      H5S            30.9041792916      -46.3685413414       10.5075187832  MEMB      115             0.0000000000
     13470       115  POPC      C26            29.7824055974      -47.7917776735        9.1608683198  MEMB      115             0.0000000000
     13471       115  POPC      H6R            28.8346466513      -47.5643644132        9.6941192655  MEMB      115             0.0000000000
     13472       115  POPC      H6S            29.9098229468      -48.8251505512        8.7732771166  MEMB      115             0.0000000000
     13473       115  POPC      C27            29.5966052057      -46.8013866447        7.9551470173  MEMB      115             0.0000000000
     13474       115  POPC      H7R            29.4529877247      -45.7593732468        8.3127824104  MEMB      115             0.0000000000
     13475       115  POPC      H7S            28.6516838438      -47.0957054166        7.4503491253  MEMB      115             0.0000000000
     13476       115  POPC      C28            30.8016121366      -46.6289988460        6.9047974938  MEMB      115             0.0000000000
     13477       115  POPC      H8R            31.5533420270      -46.0136396362        7.4438296019  MEMB      115             0.0000000000
     13478       115  POPC      H8S            30.4318763414      -45.9802371827        6.0821649043  MEMB      115             0.0000000000
     13479       115  POPC      C29            31.3107641042      -47.8768527489        6.2438036795  MEMB      115             0.0000000000
     13480       115  POPC      H91            32.2143212294      -48.3160597058        6.6917790115  MEMB      115             0.0000000000
     13481       115  POPC      C210           30.8094311742      -48.4796217459        5.1586595606  MEMB      115             0.0000000000
     13482       115  POPC      H101           31.2532778824      -49.3730348571        4.6951800090  MEMB      115             0.0000000000
     13483       115  POPC      C211           29.5870611370      -48.0572708479        4.3568253753  MEMB      115             0.0000000000
     13484       115  POPC      H11R           29.1076373443      -47.0904707782        4.6209677017  MEMB      115             0.0000000000
     13485       115  POPC      H11S           28.7835374326      -48.8241451660        4.3328479910  MEMB      115             0.0000000000
     13486       115  POPC      C212           29.8074769641      -47.8527762420        2.8407053618  MEMB      115             0.0000000000
     13487       115  POPC      H12R           28.7641133384      -47.6874756939        2.4966277549  MEMB      115             0.0000000000
     13488       115  POPC      H12S           30.2008891340      -48.8043549237        2.4235176166  MEMB      115             0.0000000000
     13489       115  POPC      C213           30.8926257818      -46.8137953370        2.4565566096  MEMB      115             0.0000000000
     13490       115  POPC      H13R           31.7674539296      -47.3564193782        2.8743543933  MEMB      115             0.0000000000
     13491       115  POPC      H13S           30.7516709497      -45.9749696844        3.1712758179  MEMB      115             0.0000000000
     13492       115  POPC      C214           31.1862506010      -46.4775310731        0.9643214635  MEMB      115             0.0000000000
     13493       115  POPC      H14R           32.1422873671      -45.9606760658        0.7337225020  MEMB      115             0.0000000000
     13494       115  POPC      H14S           30.2857928191      -45.9344396722        0.6057845416  MEMB      115             0.0000000000
     13495       115  POPC      C215           31.2596739767      -47.8136563807        0.1786423492  MEMB      115             0.0000000000
     13496       115  POPC      H15R           31.2377359408      -47.6830498965       -0.9244357490  MEMB      115             0.0000000000
     13497       115  POPC      H15S           30.3269379898      -48.3659196020        0.4222194113  MEMB      115             0.0000000000
     13498       115  POPC      C216           32.4973562941      -48.5390694310        0.6010469724  MEMB      115             0.0000000000
     13499       115  POPC      H16R           32.4209880162      -49.5521026019        0.1513209952  MEMB      115             0.0000000000
     13500       115  POPC      H16S           32.6419687188      -48.7500880903        1.6821941411  MEMB      115             0.0000000000
     13501       115  POPC      C217           33.8789220622      -47.9486041756        0.1581730195  MEMB      115             0.0000000000
     13502       115  POPC      H17R           34.5461683903      -48.8270712964        0.2900766916  MEMB      115             0.0000000000
     13503       115  POPC      H17S           34.1415784990      -47.1810593381        0.9172554515  MEMB      115             0.0000000000
     13504       115  POPC      C218           33.9396824389      -47.4277091046       -1.2823737368  MEMB      115             0.0000000000
     13505       115  POPC      H18R           33.5578715462      -48.2936871646       -1.8642880339  MEMB      115             0.0000000000
     13506       115  POPC      H18S           34.9902784661      -47.2209582273       -1.5787232993  MEMB      115             0.0000000000
     13507       115  POPC      H18T           33.2474482384      -46.5784463987       -1.4664551427  MEMB      115             0.0000000000
     13508       115  POPC      C33            29.5299301800      -41.6393702227       10.3116007642  MEMB      115             0.0000000000
     13509       115  POPC      H3X            30.5587269461      -42.0518247515       10.3876237304  MEMB      115             0.0000000000
     13510       115  POPC      H3Y            29.3286607766      -40.6426484202       10.7592133220  MEMB      115             0.0000000000
     13511       115  POPC      C34            29.2751052726      -41.5456827015        8.7644023476  MEMB      115             0.0000000000
     13512       115  POPC      H4X            29.7152650709      -40.5577785489        8.5101863988  MEMB      115             0.0000000000
     13513       115  POPC      H4Y            28.1946226094      -41.3196110993        8.6388250186  MEMB      115             0.0000000000
     13514       115  POPC      C35            29.6787473540      -42.8025929247        8.0359653313  MEMB      115             0.0000000000
     13515       115  POPC      H5X            30.1926918736      -43.4910552180        8.7403811049  MEMB      115             0.0000000000
     13516       115  POPC      H5Y            30.3656629458      -42.6332992167        7.1793389379  MEMB      115             0.0000000000
     13517       115  POPC      C36            28.5103804697      -43.4565073658        7.3448616659  MEMB      115             0.0000000000
     13518       115  POPC      H6X            27.7749782637      -43.8188034674        8.0946920539  MEMB      115             0.0000000000
     13519       115  POPC      H6Y            28.8349689733      -44.3282537709        6.7373894727  MEMB      115             0.0000000000
     13520       115  POPC      C37            27.7878918966      -42.6186987314        6.2496646261  MEMB      115             0.0000000000
     13521       115  POPC      H7X            27.3549999559      -41.6803133872        6.6575356046  MEMB      115             0.0000000000
     13522       115  POPC      H7Y            26.9529081939      -43.2416245778        5.8635477648  MEMB      115             0.0000000000
     13523       115  POPC      C38            28.4326741363      -42.2721846256        4.8761080368  MEMB      115             0.0000000000
     13524       115  POPC      H8X            29.0787455222      -41.3746405890        4.9825379766  MEMB      115             0.0000000000
     13525       115  POPC      H8Y            27.6947868076      -42.0015807463        4.0908587676  MEMB      115             0.0000000000
     13526       115  POPC      C39            29.3968131936      -43.3459855015        4.2886954561  MEMB      115             0.0000000000
     13527       115  POPC      H9X            28.8017708659      -44.2832485178        4.2464608911  MEMB      115             0.0000000000
     13528       115  POPC      H9Y            30.2469079688      -43.4247698328        4.9996484317  MEMB      115             0.0000000000
     13529       115  POPC      C310           30.1034687443      -42.9435609193        2.9624236621  MEMB      115             0.0000000000
     13530       115  POPC      H10X           29.3819836437      -42.8617183580        2.1215414560  MEMB      115             0.0000000000
     13531       115  POPC      H10Y           30.8037772343      -43.7820156688        2.7602285609  MEMB      115             0.0000000000
     13532       115  POPC      C311           30.9674200061      -41.6787220117        2.9633092568  MEMB      115             0.0000000000
     13533       115  POPC      H11X           31.6000155322      -41.6906892109        3.8765458678  MEMB      115             0.0000000000
     13534       115  POPC      H11Y           30.2245358029      -40.8824183659        3.1831835474  MEMB      115             0.0000000000
     13535       115  POPC      C312           31.8974138839      -41.2409143802        1.7586197350  MEMB      115             0.0000000000
     13536       115  POPC      H12X           32.4609298108      -40.3269185469        2.0438948329  MEMB      115             0.0000000000
     13537       115  POPC      H12Y           31.1733320899      -40.8618644610        1.0060582760  MEMB      115             0.0000000000
     13538       115  POPC      C313           32.7644000529      -42.2680356390        1.0751227008  MEMB      115             0.0000000000
     13539       115  POPC      H13X           33.2240972498      -41.7506792088        0.2060193229  MEMB      115             0.0000000000
     13540       115  POPC      H13Y           32.1774535115      -43.1175851271        0.6651478363  MEMB      115             0.0000000000
     13541       115  POPC      C314           34.0103447602      -42.8143021034        1.7947621527  MEMB      115             0.0000000000
     13542       115  POPC      H14X           33.8100099552      -43.1664079667        2.8292702678  MEMB      115             0.0000000000
     13543       115  POPC      H14Y           34.6565642656      -41.9197515775        1.9232173632  MEMB      115             0.0000000000
     13544       115  POPC      C315           34.5784645029      -44.0097192887        1.0004137719  MEMB      115             0.0000000000
     13545       115  POPC      H15X           33.8353000120      -44.4259788495        0.2871437632  MEMB      115             0.0000000000
     13546       115  POPC      H15Y           34.7885181647      -44.7994239647        1.7531203631  MEMB      115             0.0000000000
     13547       115  POPC      C316           35.7717501370      -43.7642132398        0.1259138227  MEMB      115             0.0000000000
     13548       115  POPC      H16X           35.7234785764      -42.8234165807       -0.4630612624  MEMB      115             0.0000000000
     13549       115  POPC      H16Y           35.9581701408      -44.6148846145       -0.5639607534  MEMB      115             0.0000000000
     13550       115  POPC      H16Z           36.6621103028      -43.7909269732        0.7898915593  MEMB      115             0.0000000000
     13551       116  POPC      N              54.8676974304       20.2364735674       21.1794687067  MEMB      116             0.0000000000
     13552       116  POPC      C12            55.9379620457       20.5640225430       20.0686616425  MEMB      116             0.0000000000
     13553       116  POPC      H12A           56.7726240518       19.8949077182       20.2170678892  MEMB      116             0.0000000000
     13554       116  POPC      H12B           56.3296932585       21.5689285967       20.1244339331  MEMB      116             0.0000000000
     13555       116  POPC      C13            53.7320269549       21.2664028381       21.2462982059  MEMB      116             0.0000000000
     13556       116  POPC      H13A           53.0388473680       21.3313765747       20.4206587740  MEMB      116             0.0000000000
     13557       116  POPC      H13B           53.0780770873       21.1203472891       22.0933032081  MEMB      116             0.0000000000
     13558       116  POPC      H13C           54.2629633583       22.2057302719       21.2928863091  MEMB      116             0.0000000000
     13559       116  POPC      C14            54.3176175477       18.8100112286       20.9902848164  MEMB      116             0.0000000000
     13560       116  POPC      H14A           54.1619433436       18.6541362535       19.9329918109  MEMB      116             0.0000000000
     13561       116  POPC      H14B           55.0679451107       18.1334354261       21.3719306396  MEMB      116             0.0000000000
     13562       116  POPC      H14C           53.4398782035       18.7746450113       21.6185545786  MEMB      116             0.0000000000
     13563       116  POPC      C15            55.7084619660       20.3242133676       22.4569004036  MEMB      116             0.0000000000
     13564       116  POPC      H15A           56.1225562797       21.3194346700       22.5236882787  MEMB      116             0.0000000000
     13565       116  POPC      H15B           56.5079283139       19.6052888187       22.5588851276  MEMB      116             0.0000000000
     13566       116  POPC      H15C           55.0506779399       20.3620788537       23.3126379305  MEMB      116             0.0000000000
     13567       116  POPC      C11            55.4936267974       20.4103758533       18.6042431465  MEMB      116             0.0000000000
     13568       116  POPC      H11A           55.3063384075       19.3316032731       18.4158454189  MEMB      116             0.0000000000
     13569       116  POPC      H11B           56.3838717491       20.6449778484       17.9823533687  MEMB      116             0.0000000000
     13570       116  POPC      P              54.0908147524       21.7961015875       16.8824375356  MEMB      116             0.0000000000
     13571       116  POPC      O13            55.3522895416       22.2137807226       16.3397149357  MEMB      116             0.0000000000
     13572       116  POPC      O14            53.0415413856       22.8296296490       16.9931046746  MEMB      116             0.0000000000
     13573       116  POPC      O12            54.2437651413       21.0407317114       18.2856342544  MEMB      116             0.0000000000
     13574       116  POPC      O11            53.5887525399       20.6141318293       15.9532516572  MEMB      116             0.0000000000
     13575       116  POPC      C1             52.8696184439       19.4970819973       16.5131451325  MEMB      116             0.0000000000
     13576       116  POPC      HA             52.2516140893       19.7922719671       17.3879332363  MEMB      116             0.0000000000
     13577       116  POPC      HB             53.6402174447       18.7390337626       16.7697791043  MEMB      116             0.0000000000
     13578       116  POPC      C2             51.9013464400       18.9617620802       15.4512123372  MEMB      116             0.0000000000
     13579       116  POPC      HS             51.5349442754       17.9868657815       15.8380551643  MEMB      116             0.0000000000
     13580       116  POPC      O21            52.4237130746       18.8935731663       14.1326937737  MEMB      116             0.0000000000
     13581       116  POPC      C21            53.5766804055       18.3893289181       13.7977067247  MEMB      116             0.0000000000
     13582       116  POPC      O22            54.2611981145       17.6639027095       14.5181338781  MEMB      116             0.0000000000
     13583       116  POPC      C22            53.9048928049       18.9080757913       12.3691125974  MEMB      116             0.0000000000
     13584       116  POPC      H2R            53.4849767607       19.9288173716       12.2423128285  MEMB      116             0.0000000000
     13585       116  POPC      H2S            53.4691808245       18.1414127170       11.6933138536  MEMB      116             0.0000000000
     13586       116  POPC      C3             50.6810692943       19.9468479201       15.3895695087  MEMB      116             0.0000000000
     13587       116  POPC      HX             50.3080577478       20.0216691896       16.4334015562  MEMB      116             0.0000000000
     13588       116  POPC      HY             50.0702408545       19.4943511305       14.5793496063  MEMB      116             0.0000000000
     13589       116  POPC      O31            51.2401120976       21.2353544996       14.9023884871  MEMB      116             0.0000000000
     13590       116  POPC      C31            50.2723047560       22.2078954029       14.7615449854  MEMB      116             0.0000000000
     13591       116  POPC      O32            49.1421979650       22.0151372592       15.1067809210  MEMB      116             0.0000000000
     13592       116  POPC      C32            50.8564727333       23.5108217818       14.2148925172  MEMB      116             0.0000000000
     13593       116  POPC      H2X            51.9613703105       23.3951537603       14.2268596382  MEMB      116             0.0000000000
     13594       116  POPC      H2Y            50.5310951061       24.2885722298       14.9384633197  MEMB      116             0.0000000000
     13595       116  POPC      C23            55.4157916630       19.0367160809       12.0932892312  MEMB      116             0.0000000000
     13596       116  POPC      H3R            55.5504850179       18.8466743160       11.0069822395  MEMB      116             0.0000000000
     13597       116  POPC      H3S            55.8954738680       18.1459994993       12.5524736374  MEMB      116             0.0000000000
     13598       116  POPC      C24            56.1451306661       20.3180794516       12.7140429517  MEMB      116             0.0000000000
     13599       116  POPC      H4R            57.2106002035       20.0044161286       12.7407126961  MEMB      116             0.0000000000
     13600       116  POPC      H4S            55.8535324182       20.4631564503       13.7762313438  MEMB      116             0.0000000000
     13601       116  POPC      C25            56.1785525224       21.6307904843       11.8396354486  MEMB      116             0.0000000000
     13602       116  POPC      H5R            56.2728077052       21.3680078694       10.7642830773  MEMB      116             0.0000000000
     13603       116  POPC      H5S            57.1095860811       22.2006976196       12.0462832149  MEMB      116             0.0000000000
     13604       116  POPC      C26            54.9494829244       22.4979278840       12.1109180493  MEMB      116             0.0000000000
     13605       116  POPC      H6R            54.7491354966       22.4273101567       13.2014205542  MEMB      116             0.0000000000
     13606       116  POPC      H6S            54.0498525604       22.1251653209       11.5760964035  MEMB      116             0.0000000000
     13607       116  POPC      C27            55.1487177017       24.0212605371       11.7062512969  MEMB      116             0.0000000000
     13608       116  POPC      H7R            56.2491588522       24.1706048123       11.6738955033  MEMB      116             0.0000000000
     13609       116  POPC      H7S            54.8536808920       24.6919002730       12.5414258346  MEMB      116             0.0000000000
     13610       116  POPC      C28            54.4960518171       24.1776352340       10.3278973741  MEMB      116             0.0000000000
     13611       116  POPC      H8R            53.4027623955       24.3734968217       10.3539271182  MEMB      116             0.0000000000
     13612       116  POPC      H8S            54.5927348462       23.2205019784        9.7721374188  MEMB      116             0.0000000000
     13613       116  POPC      C29            55.1773585614       25.3982500865        9.6347666452  MEMB      116             0.0000000000
     13614       116  POPC      H91            55.0858158151       26.3537682646       10.1719859598  MEMB      116             0.0000000000
     13615       116  POPC      C210           55.8799564411       25.3266507854        8.4817772426  MEMB      116             0.0000000000
     13616       116  POPC      H101           56.2125321454       26.3024306752        8.0980487388  MEMB      116             0.0000000000
     13617       116  POPC      C211           56.0824989201       24.1409333908        7.6372259448  MEMB      116             0.0000000000
     13618       116  POPC      H11R           56.7762590025       23.4726149304        8.1907315659  MEMB      116             0.0000000000
     13619       116  POPC      H11S           56.6941274692       24.5436388015        6.8017269740  MEMB      116             0.0000000000
     13620       116  POPC      C212           54.8358485079       23.5407182839        7.0000484742  MEMB      116             0.0000000000
     13621       116  POPC      H12R           54.0045365005       23.3585935764        7.7142421965  MEMB      116             0.0000000000
     13622       116  POPC      H12S           55.1470102322       22.5682391236        6.5621177856  MEMB      116             0.0000000000
     13623       116  POPC      C213           54.2819286639       24.3902139478        5.8796225946  MEMB      116             0.0000000000
     13624       116  POPC      H13R           55.0646905245       24.3402858038        5.0927862881  MEMB      116             0.0000000000
     13625       116  POPC      H13S           54.2085676573       25.4491134916        6.2077564697  MEMB      116             0.0000000000
     13626       116  POPC      C214           52.8685537619       24.0178123034        5.4192948799  MEMB      116             0.0000000000
     13627       116  POPC      H14R           52.5492281038       24.8240206320        4.7247589013  MEMB      116             0.0000000000
     13628       116  POPC      H14S           52.1978879308       24.2059243924        6.2848246027  MEMB      116             0.0000000000
     13629       116  POPC      C215           52.9594113682       22.6620045528        4.7509280631  MEMB      116             0.0000000000
     13630       116  POPC      H15R           53.1662660730       21.9114146921        5.5434847697  MEMB      116             0.0000000000
     13631       116  POPC      H15S           53.7444860074       22.5187125645        3.9779817420  MEMB      116             0.0000000000
     13632       116  POPC      C216           51.6212719761       22.3391616704        4.0651425145  MEMB      116             0.0000000000
     13633       116  POPC      H16R           51.3256604918       23.1275671155        3.3403311902  MEMB      116             0.0000000000
     13634       116  POPC      H16S           50.9396922669       22.5276409946        4.9220236133  MEMB      116             0.0000000000
     13635       116  POPC      C217           51.3470986553       20.9392324125        3.6268174685  MEMB      116             0.0000000000
     13636       116  POPC      H17R           50.2475280223       20.8330442759        3.5085401348  MEMB      116             0.0000000000
     13637       116  POPC      H17S           51.3441999026       20.2118856502        4.4666265370  MEMB      116             0.0000000000
     13638       116  POPC      C218           52.1514500081       20.3346096525        2.4979291784  MEMB      116             0.0000000000
     13639       116  POPC      H18R           51.8029448660       20.9147426840        1.6168437815  MEMB      116             0.0000000000
     13640       116  POPC      H18S           51.7758926804       19.3096539570        2.2911828823  MEMB      116             0.0000000000
     13641       116  POPC      H18T           53.2326958996       20.1416249225        2.6652162374  MEMB      116             0.0000000000
     13642       116  POPC      C33            50.3756133050       23.6313073519       12.7559110855  MEMB      116             0.0000000000
     13643       116  POPC      H3X            50.6798289866       24.6251678354       12.3634631461  MEMB      116             0.0000000000
     13644       116  POPC      H3Y            49.2653431976       23.6508809665       12.7911062362  MEMB      116             0.0000000000
     13645       116  POPC      C34            50.8937704619       22.5812436054       11.7518716704  MEMB      116             0.0000000000
     13646       116  POPC      H4X            50.7130149133       21.6204134787       12.2795591653  MEMB      116             0.0000000000
     13647       116  POPC      H4Y            51.9535769064       22.8400113614       11.5417039341  MEMB      116             0.0000000000
     13648       116  POPC      C35            50.2060102578       22.5943098501       10.3764093419  MEMB      116             0.0000000000
     13649       116  POPC      H5X            50.1879430995       23.6749227414       10.1189789684  MEMB      116             0.0000000000
     13650       116  POPC      H5Y            49.1590658992       22.2441131988       10.5012729721  MEMB      116             0.0000000000
     13651       116  POPC      C36            50.9835191509       21.6940359837        9.2975568351  MEMB      116             0.0000000000
     13652       116  POPC      H6X            51.8297889711       22.3173431543        8.9375064845  MEMB      116             0.0000000000
     13653       116  POPC      H6Y            50.3211107275       21.6362976757        8.4074991567  MEMB      116             0.0000000000
     13654       116  POPC      C37            51.1503675104       20.2540084138        9.6667155177  MEMB      116             0.0000000000
     13655       116  POPC      H7X            50.1880091513       19.7609715978        9.9218663719  MEMB      116             0.0000000000
     13656       116  POPC      H7Y            51.7313536441       20.2984016689       10.6126569653  MEMB      116             0.0000000000
     13657       116  POPC      C38            51.6950662926       19.3450391607        8.5709090813  MEMB      116             0.0000000000
     13658       116  POPC      H8X            51.3909396696       19.9146272561        7.6668083614  MEMB      116             0.0000000000
     13659       116  POPC      H8Y            51.1637277910       18.3698064450        8.5405458622  MEMB      116             0.0000000000
     13660       116  POPC      C39            53.1996028278       19.2821212818        8.5746558588  MEMB      116             0.0000000000
     13661       116  POPC      H9X            53.5168735472       19.2129013291        9.6371381102  MEMB      116             0.0000000000
     13662       116  POPC      H9Y            53.4909508110       20.2964930038        8.2275425506  MEMB      116             0.0000000000
     13663       116  POPC      C310           53.7771598191       18.1021175416        7.7600680310  MEMB      116             0.0000000000
     13664       116  POPC      H10X           53.0500846207       17.6213441703        7.0712002365  MEMB      116             0.0000000000
     13665       116  POPC      H10Y           53.8058256783       17.3158190924        8.5444363436  MEMB      116             0.0000000000
     13666       116  POPC      C311           55.1572437834       18.4361584629        7.1040989828  MEMB      116             0.0000000000
     13667       116  POPC      H11X           55.7996422399       17.5462273399        6.9318558912  MEMB      116             0.0000000000
     13668       116  POPC      H11Y           55.7310756884       19.1061578194        7.7794799089  MEMB      116             0.0000000000
     13669       116  POPC      C312           54.9496395165       19.0952546434        5.7424437510  MEMB      116             0.0000000000
     13670       116  POPC      H12X           54.2687422187       19.9560889593        5.9146770897  MEMB      116             0.0000000000
     13671       116  POPC      H12Y           54.4234411605       18.3762464256        5.0787692533  MEMB      116             0.0000000000
     13672       116  POPC      C313           56.2069968482       19.6310649499        5.1578463163  MEMB      116             0.0000000000
     13673       116  POPC      H13X           57.0385676790       18.8997095141        5.0687946288  MEMB      116             0.0000000000
     13674       116  POPC      H13Y           56.5812078321       20.3697271810        5.8985648278  MEMB      116             0.0000000000
     13675       116  POPC      C314           55.9509272650       20.2490456022        3.7110073108  MEMB      116             0.0000000000
     13676       116  POPC      H14X           55.3290017990       21.1507879741        3.8964539600  MEMB      116             0.0000000000
     13677       116  POPC      H14Y           55.3501382522       19.5642184342        3.0750940685  MEMB      116             0.0000000000
     13678       116  POPC      C315           57.2194008346       20.6942348912        3.0393495769  MEMB      116             0.0000000000
     13679       116  POPC      H15X           58.0403659322       19.9479570344        3.0977169792  MEMB      116             0.0000000000
     13680       116  POPC      H15Y           57.5392997467       21.5785023651        3.6310051861  MEMB      116             0.0000000000
     13681       116  POPC      C316           56.9687968041       21.2648238722        1.6056861862  MEMB      116             0.0000000000
     13682       116  POPC      H16X           56.4847397859       20.5429977463        0.9136036931  MEMB      116             0.0000000000
     13683       116  POPC      H16Y           57.9865812637       21.5169867224        1.2384676474  MEMB      116             0.0000000000
     13684       116  POPC      H16Z           56.4288912086       22.2341829723        1.6619487142  MEMB      116             0.0000000000
     13685       117  POPC      N             -56.5928714807      -20.9321751225       18.5766980586  MEMB      117             0.0000000000
     13686       117  POPC      C12           -55.5450513981      -21.7274478809       17.8373610566  MEMB      117             0.0000000000
     13687       117  POPC      H12A          -55.0678483036      -21.0473647053       17.1473145758  MEMB      117             0.0000000000
     13688       117  POPC      H12B          -55.8984682083      -22.5349117251       17.2132628326  MEMB      117             0.0000000000
     13689       117  POPC      C13           -56.0656876333      -19.5027687375       18.8055531322  MEMB      117             0.0000000000
     13690       117  POPC      H13A          -56.8778302110      -18.8922795259       19.1717872282  MEMB      117             0.0000000000
     13691       117  POPC      H13B          -55.3013479983      -19.5374062704       19.5677770110  MEMB      117             0.0000000000
     13692       117  POPC      H13C          -55.6567670578      -19.1913609231       17.8557062316  MEMB      117             0.0000000000
     13693       117  POPC      C14           -57.7966836745      -20.8654049015       17.6475276979  MEMB      117             0.0000000000
     13694       117  POPC      H14A          -57.8406765728      -21.8549408275       17.2170822848  MEMB      117             0.0000000000
     13695       117  POPC      H14B          -58.6703997141      -20.4768355468       18.1495580959  MEMB      117             0.0000000000
     13696       117  POPC      H14C          -57.6758049177      -20.2536483191       16.7657441711  MEMB      117             0.0000000000
     13697       117  POPC      C15           -56.9490506198      -21.5442262118       19.8730630950  MEMB      117             0.0000000000
     13698       117  POPC      H15A          -56.0095161682      -21.4952627004       20.4034191842  MEMB      117             0.0000000000
     13699       117  POPC      H15B          -57.3567248878      -22.5414369049       19.7970859632  MEMB      117             0.0000000000
     13700       117  POPC      H15C          -57.6597136213      -20.9186210914       20.3926556054  MEMB      117             0.0000000000
     13701       117  POPC      C11           -54.3838782947      -22.4169435614       18.5992953734  MEMB      117             0.0000000000
     13702       117  POPC      H11A          -53.5991861710      -22.7026901414       17.8665415897  MEMB      117             0.0000000000
     13703       117  POPC      H11B          -54.5726824397      -23.4211543780       19.0354541173  MEMB      117             0.0000000000
     13704       117  POPC      P             -52.5384628943      -20.8338218882       19.6318466869  MEMB      117             0.0000000000
     13705       117  POPC      O13           -51.4701055157      -21.7735002918       19.2882240714  MEMB      117             0.0000000000
     13706       117  POPC      O14           -52.3766225592      -19.9129029284       20.7761318081  MEMB      117             0.0000000000
     13707       117  POPC      O12           -53.9322757210      -21.5975622004       19.6679847688  MEMB      117             0.0000000000
     13708       117  POPC      O11           -52.7516369394      -19.9332455413       18.2963143010  MEMB      117             0.0000000000
     13709       117  POPC      C1            -51.9651800367      -18.6265957138       18.4121252576  MEMB      117             0.0000000000
     13710       117  POPC      HA            -50.9963808880      -18.7487154223       18.9420647986  MEMB      117             0.0000000000
     13711       117  POPC      HB            -52.6432217712      -17.8582368308       18.8413165589  MEMB      117             0.0000000000
     13712       117  POPC      C2            -51.5541418250      -18.1828539860       16.9644996697  MEMB      117             0.0000000000
     13713       117  POPC      HS            -51.2615178157      -17.1123457089       17.0164985954  MEMB      117             0.0000000000
     13714       117  POPC      O21           -52.6357456380      -18.2591130097       15.9671998577  MEMB      117             0.0000000000
     13715       117  POPC      C21           -53.4124058408      -17.2127683934       15.8799562193  MEMB      117             0.0000000000
     13716       117  POPC      O22           -53.4325864876      -16.2274699515       16.5461278143  MEMB      117             0.0000000000
     13717       117  POPC      C22           -54.4033392064      -17.5862260864       14.7979062117  MEMB      117             0.0000000000
     13718       117  POPC      H2R           -55.2954952436      -17.0863182787       15.2320381733  MEMB      117             0.0000000000
     13719       117  POPC      H2S           -54.5113211641      -18.6787818357       14.6276619768  MEMB      117             0.0000000000
     13720       117  POPC      C3            -50.4248441479      -19.0287931650       16.4801957610  MEMB      117             0.0000000000
     13721       117  POPC      HX            -49.6345543901      -19.1972365506       17.2426846928  MEMB      117             0.0000000000
     13722       117  POPC      HY            -49.9216737407      -18.5890412567       15.5926380320  MEMB      117             0.0000000000
     13723       117  POPC      O31           -50.9786033291      -20.3726670003       16.1787776476  MEMB      117             0.0000000000
     13724       117  POPC      C31           -50.1017508668      -21.1562696510       15.6333862183  MEMB      117             0.0000000000
     13725       117  POPC      O32           -48.9309664903      -20.8534867307       15.4449597025  MEMB      117             0.0000000000
     13726       117  POPC      C32           -50.7989700487      -22.4831099149       15.2986916554  MEMB      117             0.0000000000
     13727       117  POPC      H2X           -51.0585354242      -23.1114346235       16.1774149088  MEMB      117             0.0000000000
     13728       117  POPC      H2Y           -50.1032203097      -23.0399693029       14.6352454513  MEMB      117             0.0000000000
     13729       117  POPC      C23           -53.9534285773      -16.9508474954       13.4749386294  MEMB      117             0.0000000000
     13730       117  POPC      H3R           -53.9868951366      -15.8448906939       13.5752418738  MEMB      117             0.0000000000
     13731       117  POPC      H3S           -54.6170694442      -17.1576278934       12.6082531326  MEMB      117             0.0000000000
     13732       117  POPC      C24           -52.5449833208      -17.3746855610       13.0431169743  MEMB      117             0.0000000000
     13733       117  POPC      H4R           -51.7448639503      -17.0230184707       13.7290180300  MEMB      117             0.0000000000
     13734       117  POPC      H4S           -52.5147592114      -16.6853230793       12.1723776942  MEMB      117             0.0000000000
     13735       117  POPC      C25           -52.4259788746      -18.8492510740       12.5981637496  MEMB      117             0.0000000000
     13736       117  POPC      H5R           -53.1397293819      -19.0158051853       11.7632144515  MEMB      117             0.0000000000
     13737       117  POPC      H5S           -52.7778758873      -19.6175610795       13.3194055863  MEMB      117             0.0000000000
     13738       117  POPC      C26           -51.0379558859      -19.2867512085       12.0735262412  MEMB      117             0.0000000000
     13739       117  POPC      H6R           -50.4632307762      -19.6366585679       12.9575944090  MEMB      117             0.0000000000
     13740       117  POPC      H6S           -50.5795157291      -18.4227782865       11.5465491619  MEMB      117             0.0000000000
     13741       117  POPC      C27           -51.0880423967      -20.4436639393       11.0670341483  MEMB      117             0.0000000000
     13742       117  POPC      H7R           -51.7467117086      -20.1872355472       10.2098755403  MEMB      117             0.0000000000
     13743       117  POPC      H7S           -51.5535049520      -21.2200932075       11.7111019777  MEMB      117             0.0000000000
     13744       117  POPC      C28           -49.7128048715      -21.0374985396       10.5815292279  MEMB      117             0.0000000000
     13745       117  POPC      H8R           -49.8411414226      -22.0226325036       10.0841741090  MEMB      117             0.0000000000
     13746       117  POPC      H8S           -49.1537363640      -21.2370034594       11.5206570206  MEMB      117             0.0000000000
     13747       117  POPC      C29           -48.9867667857      -20.0075212398        9.7015739459  MEMB      117             0.0000000000
     13748       117  POPC      H91           -48.0924278590      -19.5162521271       10.1124416678  MEMB      117             0.0000000000
     13749       117  POPC      C210          -49.2721111881      -19.7344110194        8.4080279949  MEMB      117             0.0000000000
     13750       117  POPC      H101          -48.7058916328      -18.9709305921        7.8544106305  MEMB      117             0.0000000000
     13751       117  POPC      C211          -50.3990726629      -20.3887001998        7.6468108137  MEMB      117             0.0000000000
     13752       117  POPC      H11R          -51.1358698540      -19.5843659592        7.4358668562  MEMB      117             0.0000000000
     13753       117  POPC      H11S          -50.8848099092      -21.2567368810        8.1416766645  MEMB      117             0.0000000000
     13754       117  POPC      C212          -49.8796093952      -20.8724704152        6.2298087149  MEMB      117             0.0000000000
     13755       117  POPC      H12R          -49.2133200005      -21.7175218274        6.5059744384  MEMB      117             0.0000000000
     13756       117  POPC      H12S          -49.3211746802      -20.0436239822        5.7445399051  MEMB      117             0.0000000000
     13757       117  POPC      C213          -50.9403174634      -21.3490434468        5.2963355736  MEMB      117             0.0000000000
     13758       117  POPC      H13R          -51.6778484909      -20.5314462601        5.1483362824  MEMB      117             0.0000000000
     13759       117  POPC      H13S          -51.4201525101      -22.0748737003        5.9871676390  MEMB      117             0.0000000000
     13760       117  POPC      C214          -50.3938787686      -21.8317737206        3.9318324466  MEMB      117             0.0000000000
     13761       117  POPC      H14R          -51.1117752130      -22.4476590791        3.3490536840  MEMB      117             0.0000000000
     13762       117  POPC      H14S          -49.4779916733      -22.4201829013        4.1537480379  MEMB      117             0.0000000000
     13763       117  POPC      C215          -50.0042439160      -20.7442545155        2.9748659890  MEMB      117             0.0000000000
     13764       117  POPC      H15R          -49.1568326779      -20.2137916632        3.4594525534  MEMB      117             0.0000000000
     13765       117  POPC      H15S          -50.7440152246      -19.9497554348        2.7385814417  MEMB      117             0.0000000000
     13766       117  POPC      C216          -49.4280852868      -21.3050273448        1.6108906531  MEMB      117             0.0000000000
     13767       117  POPC      H16R          -50.1509341955      -21.9968124165        1.1279368136  MEMB      117             0.0000000000
     13768       117  POPC      H16S          -48.4761753847      -21.8365040579        1.8247150408  MEMB      117             0.0000000000
     13769       117  POPC      C217          -49.1568118222      -20.1491604020        0.5878547477  MEMB      117             0.0000000000
     13770       117  POPC      H17R          -49.0173060002      -20.6181365083       -0.4096008212  MEMB      117             0.0000000000
     13771       117  POPC      H17S          -48.1525213357      -19.7056353122        0.7581701889  MEMB      117             0.0000000000
     13772       117  POPC      C218          -50.1913269479      -19.1151581857        0.1943682932  MEMB      117             0.0000000000
     13773       117  POPC      H18R          -51.2292394946      -19.4709939059        0.3688373199  MEMB      117             0.0000000000
     13774       117  POPC      H18S          -49.9976536668      -18.7743953242       -0.8451950429  MEMB      117             0.0000000000
     13775       117  POPC      H18T          -50.0743181948      -18.1802316547        0.7830459390  MEMB      117             0.0000000000
     13776       117  POPC      C33           -52.1238415611      -22.2923442343       14.5103224898  MEMB      117             0.0000000000
     13777       117  POPC      H3X           -51.9022479242      -21.7121936586       13.5891048286  MEMB      117             0.0000000000
     13778       117  POPC      H3Y           -52.8411287080      -21.7149228269       15.1319376784  MEMB      117             0.0000000000
     13779       117  POPC      C34           -52.9208747870      -23.5680510887       14.3281039039  MEMB      117             0.0000000000
     13780       117  POPC      H4X           -53.4750392406      -23.7686831287       15.2698944540  MEMB      117             0.0000000000
     13781       117  POPC      H4Y           -52.2758168977      -24.4518467150       14.1354212027  MEMB      117             0.0000000000
     13782       117  POPC      C35           -53.9640140279      -23.4728693765       13.1790387466  MEMB      117             0.0000000000
     13783       117  POPC      H5X           -54.5003616891      -24.4445651851       13.1294485776  MEMB      117             0.0000000000
     13784       117  POPC      H5Y           -53.3792558514      -23.1579868381       12.2884052286  MEMB      117             0.0000000000
     13785       117  POPC      C36           -55.1243603057      -22.5349048616       13.3845563121  MEMB      117             0.0000000000
     13786       117  POPC      H6X           -54.7450394135      -21.4945769426       13.2942548880  MEMB      117             0.0000000000
     13787       117  POPC      H6Y           -55.6959235669      -22.6102830158       14.3342692428  MEMB      117             0.0000000000
     13788       117  POPC      C37           -56.1490015748      -22.6406160132       12.2253394819  MEMB      117             0.0000000000
     13789       117  POPC      H7X           -56.9476109125      -21.9275204524       12.5220522750  MEMB      117             0.0000000000
     13790       117  POPC      H7Y           -56.5215057105      -23.6851738828       12.2921243529  MEMB      117             0.0000000000
     13791       117  POPC      C38           -55.8376508464      -22.4248370871       10.7680475609  MEMB      117             0.0000000000
     13792       117  POPC      H8X           -56.7241906256      -22.5220227254       10.1055347954  MEMB      117             0.0000000000
     13793       117  POPC      H8Y           -55.1576416001      -23.2521087552       10.4721931806  MEMB      117             0.0000000000
     13794       117  POPC      C39           -55.1792485973      -21.0339041536       10.4626169842  MEMB      117             0.0000000000
     13795       117  POPC      H9X           -54.3437202936      -20.7955529498       11.1550061717  MEMB      117             0.0000000000
     13796       117  POPC      H9Y           -55.8871060507      -20.1886264429       10.5996010475  MEMB      117             0.0000000000
     13797       117  POPC      C310          -54.6366094168      -20.9696220527        9.0151490314  MEMB      117             0.0000000000
     13798       117  POPC      H10X          -54.1062019323      -21.8647863983        8.6257012406  MEMB      117             0.0000000000
     13799       117  POPC      H10Y          -53.8928214885      -20.1476531297        8.9412071888  MEMB      117             0.0000000000
     13800       117  POPC      C311          -55.7688441708      -20.7755151793        7.9841044826  MEMB      117             0.0000000000
     13801       117  POPC      H11X          -56.3397017951      -19.8613802719        8.2539185470  MEMB      117             0.0000000000
     13802       117  POPC      H11Y          -56.4557531284      -21.6297593398        8.1650572034  MEMB      117             0.0000000000
     13803       117  POPC      C312          -55.2750369027      -20.6998301146        6.5133966607  MEMB      117             0.0000000000
     13804       117  POPC      H12X          -54.4040668918      -20.0114226411        6.4706502193  MEMB      117             0.0000000000
     13805       117  POPC      H12Y          -56.1463048032      -20.3027136191        5.9499143660  MEMB      117             0.0000000000
     13806       117  POPC      C313          -54.8802847676      -22.0500331939        5.8625066274  MEMB      117             0.0000000000
     13807       117  POPC      H13X          -55.5114772837      -22.9423219162        6.0618507710  MEMB      117             0.0000000000
     13808       117  POPC      H13Y          -53.8534527824      -22.2923922458        6.2106426695  MEMB      117             0.0000000000
     13809       117  POPC      C314          -54.8594173405      -21.9227293022        4.3467781027  MEMB      117             0.0000000000
     13810       117  POPC      H14X          -54.4884171679      -22.8771072574        3.9156833777  MEMB      117             0.0000000000
     13811       117  POPC      H14Y          -54.2959697778      -20.9911072223        4.1255808681  MEMB      117             0.0000000000
     13812       117  POPC      C315          -56.3019581098      -21.7899672333        3.6949090359  MEMB      117             0.0000000000
     13813       117  POPC      H15X          -56.8789264831      -20.9322628451        4.1020602514  MEMB      117             0.0000000000
     13814       117  POPC      H15Y          -56.8993648941      -22.6687865962        4.0191044826  MEMB      117             0.0000000000
     13815       117  POPC      C316          -56.4158976427      -21.7016473116        2.1500775575  MEMB      117             0.0000000000
     13816       117  POPC      H16X          -57.4659718266      -21.6604098631        1.7895713168  MEMB      117             0.0000000000
     13817       117  POPC      H16Y          -55.8829097889      -22.6149536456        1.8093188978  MEMB      117             0.0000000000
     13818       117  POPC      H16Z          -56.0016834794      -20.8558461955        1.5606985896  MEMB      117             0.0000000000
     13819       118  POPC      N             -17.3045382388       56.1681641251       18.5672322691  MEMB      118             0.0000000000
     13820       118  POPC      C12           -18.6368244395       56.7605833917       18.0279645975  MEMB      118             0.0000000000
     13821       118  POPC      H12A          -19.1454974921       56.0519737706       17.3911567124  MEMB      118             0.0000000000
     13822       118  POPC      H12B          -18.4301756124       57.5385150241       17.3078822217  MEMB      118             0.0000000000
     13823       118  POPC      C13           -16.5099954496       56.9980048193       19.4826347794  MEMB      118             0.0000000000
     13824       118  POPC      H13A          -16.9411939057       57.0591057307       20.4709335400  MEMB      118             0.0000000000
     13825       118  POPC      H13B          -15.5560706993       56.4984776531       19.5657007669  MEMB      118             0.0000000000
     13826       118  POPC      H13C          -16.3980071483       57.9258340369       18.9413477307  MEMB      118             0.0000000000
     13827       118  POPC      C14           -17.6201903906       54.8703524699       19.2432144846  MEMB      118             0.0000000000
     13828       118  POPC      H14A          -16.6581639765       54.4276886632       19.4552381687  MEMB      118             0.0000000000
     13829       118  POPC      H14B          -18.1388391559       54.9285078617       20.1887414779  MEMB      118             0.0000000000
     13830       118  POPC      H14C          -18.0343957247       54.1534070732       18.5498003234  MEMB      118             0.0000000000
     13831       118  POPC      C15           -16.4244173879       55.7567968487       17.3726636268  MEMB      118             0.0000000000
     13832       118  POPC      H15A          -16.4856210813       54.6954340833       17.1824974116  MEMB      118             0.0000000000
     13833       118  POPC      H15B          -15.3739772886       55.8992461846       17.5792633347  MEMB      118             0.0000000000
     13834       118  POPC      H15C          -16.6223658045       56.3799396559       16.5130651620  MEMB      118             0.0000000000
     13835       118  POPC      C11           -19.7049626273       57.4611747907       18.9805507376  MEMB      118             0.0000000000
     13836       118  POPC      H11A          -20.4959182779       57.9554526810       18.3768956857  MEMB      118             0.0000000000
     13837       118  POPC      H11B          -19.3103878088       58.2689375137       19.6333533809  MEMB      118             0.0000000000
     13838       118  POPC      P             -21.4563878044       55.5971214713       19.5256184031  MEMB      118             0.0000000000
     13839       118  POPC      O13           -22.6419356813       56.4630598834       19.5563963347  MEMB      118             0.0000000000
     13840       118  POPC      O14           -21.5689892367       54.3809657526       20.2801817629  MEMB      118             0.0000000000
     13841       118  POPC      O12           -20.2172429734       56.5037089867       19.8947358793  MEMB      118             0.0000000000
     13842       118  POPC      O11           -21.1971105666       55.2348983635       18.0688071286  MEMB      118             0.0000000000
     13843       118  POPC      C1            -22.3032976158       55.0525100018       17.1195543688  MEMB      118             0.0000000000
     13844       118  POPC      HA            -22.8357306943       55.9952443482       16.8703807008  MEMB      118             0.0000000000
     13845       118  POPC      HB            -22.9264594174       54.2898331792       17.6336697427  MEMB      118             0.0000000000
     13846       118  POPC      C2            -21.7202072506       54.2952412336       15.8506613024  MEMB      118             0.0000000000
     13847       118  POPC      HS            -21.2559792123       53.3302979926       16.1467997298  MEMB      118             0.0000000000
     13848       118  POPC      O21           -20.8780748599       55.1340828346       15.0890661169  MEMB      118             0.0000000000
     13849       118  POPC      C21           -19.5260706377       54.8135537699       15.1458241432  MEMB      118             0.0000000000
     13850       118  POPC      O22           -19.1811889689       53.9390291587       15.9121170181  MEMB      118             0.0000000000
     13851       118  POPC      C22           -18.6120150061       55.6391093736       14.3080156051  MEMB      118             0.0000000000
     13852       118  POPC      H2R           -17.5625106936       55.5231182996       14.6535696557  MEMB      118             0.0000000000
     13853       118  POPC      H2S           -18.9481733530       56.6868069030       14.4617957614  MEMB      118             0.0000000000
     13854       118  POPC      C3            -22.9064920900       53.8682806814       14.9156114019  MEMB      118             0.0000000000
     13855       118  POPC      HX            -23.6074131199       54.6686748724       14.5956115526  MEMB      118             0.0000000000
     13856       118  POPC      HY            -23.5506681897       53.1583360864       15.4771598635  MEMB      118             0.0000000000
     13857       118  POPC      O31           -22.3696333219       53.1831023655       13.7350057015  MEMB      118             0.0000000000
     13858       118  POPC      C31           -22.9186168331       53.3229717228       12.5792727846  MEMB      118             0.0000000000
     13859       118  POPC      O32           -24.0816295320       53.7102233956       12.3967298222  MEMB      118             0.0000000000
     13860       118  POPC      C32           -21.9378354022       52.7930235138       11.5297867028  MEMB      118             0.0000000000
     13861       118  POPC      H2X           -21.4643034591       51.8271106556       11.8074570900  MEMB      118             0.0000000000
     13862       118  POPC      H2Y           -21.1840983802       53.4760153108       11.0828820279  MEMB      118             0.0000000000
     13863       118  POPC      C23           -18.8151051288       55.3853029067       12.9026927391  MEMB      118             0.0000000000
     13864       118  POPC      H3R           -19.9060088430       55.5422451678       12.7626240652  MEMB      118             0.0000000000
     13865       118  POPC      H3S           -18.6200442170       54.3842935926       12.4619520087  MEMB      118             0.0000000000
     13866       118  POPC      C24           -17.9081481410       56.2770482107       12.0662041849  MEMB      118             0.0000000000
     13867       118  POPC      H4R           -16.8375091371       56.0087216381       12.1929089646  MEMB      118             0.0000000000
     13868       118  POPC      H4S           -18.1498026656       57.3282084840       12.3326360728  MEMB      118             0.0000000000
     13869       118  POPC      C25           -18.1531888957       56.2714334308       10.5552845649  MEMB      118             0.0000000000
     13870       118  POPC      H5R           -19.1964070916       56.2644589083       10.1732264789  MEMB      118             0.0000000000
     13871       118  POPC      H5S           -17.7379748474       55.2694907778       10.3143912427  MEMB      118             0.0000000000
     13872       118  POPC      C26           -17.2954952985       57.2438693949        9.7151296428  MEMB      118             0.0000000000
     13873       118  POPC      H6R           -16.3187794535       57.2446475538       10.2446072082  MEMB      118             0.0000000000
     13874       118  POPC      H6S           -17.8016294732       58.2328601245        9.7219367639  MEMB      118             0.0000000000
     13875       118  POPC      C27           -17.0002877366       56.7366647759        8.3281066867  MEMB      118             0.0000000000
     13876       118  POPC      H7R           -16.3095588051       55.8665801772        8.3410408048  MEMB      118             0.0000000000
     13877       118  POPC      H7S           -16.3326154249       57.4883481419        7.8553416588  MEMB      118             0.0000000000
     13878       118  POPC      C28           -18.1909913305       56.4368048809        7.3518933053  MEMB      118             0.0000000000
     13879       118  POPC      H8R           -18.7346061413       55.6253931863        7.8814358731  MEMB      118             0.0000000000
     13880       118  POPC      H8S           -17.7096151605       56.1392401407        6.3958315445  MEMB      118             0.0000000000
     13881       118  POPC      C29           -19.0118275221       57.6629956467        7.0656843318  MEMB      118             0.0000000000
     13882       118  POPC      H91           -18.4958209407       58.5561530418        6.6835757137  MEMB      118             0.0000000000
     13883       118  POPC      C210          -20.3238197956       57.7917747546        7.2526942792  MEMB      118             0.0000000000
     13884       118  POPC      H101          -20.7449136447       58.7903006157        7.0639448608  MEMB      118             0.0000000000
     13885       118  POPC      C211          -21.2418482298       56.7299717979        7.8014208736  MEMB      118             0.0000000000
     13886       118  POPC      H11R          -21.8443046569       57.2469483342        8.5786614107  MEMB      118             0.0000000000
     13887       118  POPC      H11S          -20.6524211242       55.8350751187        8.0947746281  MEMB      118             0.0000000000
     13888       118  POPC      C212          -22.1493494631       56.2151110268        6.6488136411  MEMB      118             0.0000000000
     13889       118  POPC      H12R          -22.8912010951       56.9114485596        6.2026171681  MEMB      118             0.0000000000
     13890       118  POPC      H12S          -22.8576880113       55.4435574045        7.0193297799  MEMB      118             0.0000000000
     13891       118  POPC      C213          -21.4041367876       55.5096346351        5.4843961562  MEMB      118             0.0000000000
     13892       118  POPC      H13R          -20.5436919192       54.9829323434        5.9497350159  MEMB      118             0.0000000000
     13893       118  POPC      H13S          -20.9680135133       56.3078561058        4.8464626954  MEMB      118             0.0000000000
     13894       118  POPC      C214          -22.2119360119       54.4527012731        4.6561016318  MEMB      118             0.0000000000
     13895       118  POPC      H14R          -22.8543329913       53.9312536984        5.3975457161  MEMB      118             0.0000000000
     13896       118  POPC      H14S          -21.6287958616       53.6434936877        4.1667635148  MEMB      118             0.0000000000
     13897       118  POPC      C215          -23.1288202773       54.9611981025        3.4987783587  MEMB      118             0.0000000000
     13898       118  POPC      H15R          -22.8316603374       55.9473598202        3.0822430137  MEMB      118             0.0000000000
     13899       118  POPC      H15S          -24.0998193566       55.2999643969        3.9191588407  MEMB      118             0.0000000000
     13900       118  POPC      C216          -23.3679546558       53.9558292593        2.3850098519  MEMB      118             0.0000000000
     13901       118  POPC      H16R          -23.9256840381       53.0620406067        2.7377141986  MEMB      118             0.0000000000
     13902       118  POPC      H16S          -22.3887044337       53.5456421774        2.0576916437  MEMB      118             0.0000000000
     13903       118  POPC      C217          -24.0489633125       54.5121311494        1.1397917158  MEMB      118             0.0000000000
     13904       118  POPC      H17R          -24.9037348764       55.1370099753        1.4762620652  MEMB      118             0.0000000000
     13905       118  POPC      H17S          -24.3994601571       53.6569775148        0.5231990950  MEMB      118             0.0000000000
     13906       118  POPC      C218          -23.0796216928       55.2821199224        0.2509039863  MEMB      118             0.0000000000
     13907       118  POPC      H18R          -22.3830320610       54.5124729518       -0.1449845231  MEMB      118             0.0000000000
     13908       118  POPC      H18S          -22.5120355248       56.0311523143        0.8434556614  MEMB      118             0.0000000000
     13909       118  POPC      H18T          -23.5049367512       55.8195410969       -0.6235139148  MEMB      118             0.0000000000
     13910       118  POPC      C33           -22.8698875490       52.4357837269       10.3727231024  MEMB      118             0.0000000000
     13911       118  POPC      H3X           -23.2738350478       53.3886037297        9.9686420354  MEMB      118             0.0000000000
     13912       118  POPC      H3Y           -23.7185964137       51.7775987748       10.6569889516  MEMB      118             0.0000000000
     13913       118  POPC      C34           -22.1220121366       51.6564960266        9.3691088847  MEMB      118             0.0000000000
     13914       118  POPC      H4X           -22.9305509030       51.2334624530        8.7353674205  MEMB      118             0.0000000000
     13915       118  POPC      H4Y           -21.4964321771       50.8268984816        9.7624766366  MEMB      118             0.0000000000
     13916       118  POPC      C35           -21.2997046816       52.5409491131        8.3648093647  MEMB      118             0.0000000000
     13917       118  POPC      H5X           -20.5010674270       53.1284364304        8.8661649949  MEMB      118             0.0000000000
     13918       118  POPC      H5Y           -22.0484038829       53.2187149993        7.9017718172  MEMB      118             0.0000000000
     13919       118  POPC      C36           -20.7186552979       51.7386371618        7.1841138139  MEMB      118             0.0000000000
     13920       118  POPC      H6X           -21.4376099580       51.6504317089        6.3417087224  MEMB      118             0.0000000000
     13921       118  POPC      H6Y           -20.6251542389       50.6758996745        7.4942233907  MEMB      118             0.0000000000
     13922       118  POPC      C37           -19.3364842212       52.2689079866        6.7003377522  MEMB      118             0.0000000000
     13923       118  POPC      H7X           -18.5630381946       52.0942359670        7.4785355847  MEMB      118             0.0000000000
     13924       118  POPC      H7Y           -19.5388492921       53.3472059896        6.5252873639  MEMB      118             0.0000000000
     13925       118  POPC      C38           -18.8695560864       51.6913927980        5.3933069432  MEMB      118             0.0000000000
     13926       118  POPC      H8X           -19.4404395503       52.1755041914        4.5723022099  MEMB      118             0.0000000000
     13927       118  POPC      H8Y           -18.9716381057       50.5934223259        5.2578031842  MEMB      118             0.0000000000
     13928       118  POPC      C39           -17.3588886524       52.0580958353        5.2193046676  MEMB      118             0.0000000000
     13929       118  POPC      H9X           -16.9273043514       51.5763164883        4.3160076578  MEMB      118             0.0000000000
     13930       118  POPC      H9Y           -16.7394801451       51.6982319188        6.0685113273  MEMB      118             0.0000000000
     13931       118  POPC      C310          -17.0716309543       53.5709811541        5.0467283467  MEMB      118             0.0000000000
     13932       118  POPC      H10X          -16.0116298786       53.6069700450        4.7159356719  MEMB      118             0.0000000000
     13933       118  POPC      H10Y          -17.2462901395       53.9803317390        6.0646900660  MEMB      118             0.0000000000
     13934       118  POPC      C311          -17.9067489663       54.2567047373        3.9412548216  MEMB      118             0.0000000000
     13935       118  POPC      H11X          -18.9872384021       54.3809158359        4.1680485717  MEMB      118             0.0000000000
     13936       118  POPC      H11Y          -17.8235664143       53.5165728657        3.1168722251  MEMB      118             0.0000000000
     13937       118  POPC      C312          -17.2621948133       55.6589117780        3.6373033945  MEMB      118             0.0000000000
     13938       118  POPC      H12X          -16.2975932980       55.5672128135        3.0937445401  MEMB      118             0.0000000000
     13939       118  POPC      H12Y          -17.1059148009       56.3074944162        4.5256945139  MEMB      118             0.0000000000
     13940       118  POPC      C313          -18.0832927169       56.4170978476        2.6344593525  MEMB      118             0.0000000000
     13941       118  POPC      H13X          -19.1491780806       56.3464708848        2.9397792205  MEMB      118             0.0000000000
     13942       118  POPC      H13Y          -17.9963534474       55.9184720083        1.6454518624  MEMB      118             0.0000000000
     13943       118  POPC      C314          -17.5671510276       57.8547695033        2.5462542519  MEMB      118             0.0000000000
     13944       118  POPC      H14X          -16.4577727456       57.8457199745        2.6055750549  MEMB      118             0.0000000000
     13945       118  POPC      H14Y          -17.8674596062       58.4074392116        3.4620545819  MEMB      118             0.0000000000
     13946       118  POPC      C315          -18.1271270211       58.6371203842        1.3103625895  MEMB      118             0.0000000000
     13947       118  POPC      H15X          -18.0192894858       58.0509332041        0.3727709988  MEMB      118             0.0000000000
     13948       118  POPC      H15Y          -17.4087316763       59.4451948977        1.0549302081  MEMB      118             0.0000000000
     13949       118  POPC      C316          -19.4988607902       59.2547907941        1.4160844872  MEMB      118             0.0000000000
     13950       118  POPC      H16X          -19.4456753157       60.0368937586        2.2033634719  MEMB      118             0.0000000000
     13951       118  POPC      H16Y          -20.2241046754       58.4647451761        1.7062054355  MEMB      118             0.0000000000
     13952       118  POPC      H16Z          -19.7902941286       59.7373978314        0.4587561486  MEMB      118             0.0000000000
     13953       119  POPC      N             -45.4180684902       39.9730933547       18.8018453062  MEMB      119             0.0000000000
     13954       119  POPC      C12           -45.6127114400       38.4865484008       19.0953759154  MEMB      119             0.0000000000
     13955       119  POPC      H12A          -46.6283185929       38.1545191372       18.9382177755  MEMB      119             0.0000000000
     13956       119  POPC      H12B          -45.4297311440       38.3735100409       20.1537428770  MEMB      119             0.0000000000
     13957       119  POPC      C13           -46.7182328990       40.7326687979       19.1936084051  MEMB      119             0.0000000000
     13958       119  POPC      H13A          -46.8405344874       40.5096903687       20.2432383217  MEMB      119             0.0000000000
     13959       119  POPC      H13B          -46.4691663566       41.7787121413       19.0928151209  MEMB      119             0.0000000000
     13960       119  POPC      H13C          -47.4985040323       40.3133537598       18.5757476609  MEMB      119             0.0000000000
     13961       119  POPC      C14           -44.2824215294       40.5979022180       19.5730189824  MEMB      119             0.0000000000
     13962       119  POPC      H14A          -44.1391959299       41.6342110916       19.3047836551  MEMB      119             0.0000000000
     13963       119  POPC      H14B          -44.4717106747       40.5213272805       20.6335404919  MEMB      119             0.0000000000
     13964       119  POPC      H14C          -43.3962495054       39.9945703206       19.4422907958  MEMB      119             0.0000000000
     13965       119  POPC      C15           -45.2216180859       40.1827380542       17.2705092535  MEMB      119             0.0000000000
     13966       119  POPC      H15A          -45.9538428933       39.5358533252       16.8103060506  MEMB      119             0.0000000000
     13967       119  POPC      H15B          -44.2273311402       39.9278505088       16.9346139805  MEMB      119             0.0000000000
     13968       119  POPC      H15C          -45.1836457087       41.2528704125       17.1298864167  MEMB      119             0.0000000000
     13969       119  POPC      C11           -44.6985705620       37.4211253645       18.4055580327  MEMB      119             0.0000000000
     13970       119  POPC      H11A          -45.0506980719       37.4165292590       17.3518474095  MEMB      119             0.0000000000
     13971       119  POPC      H11B          -44.7704102856       36.3975860651       18.8316182775  MEMB      119             0.0000000000
     13972       119  POPC      P             -42.2121856452       37.3997001397       19.3921665338  MEMB      119             0.0000000000
     13973       119  POPC      O13           -42.8246560528       36.8338262362       20.5929327379  MEMB      119             0.0000000000
     13974       119  POPC      O14           -41.3476702763       38.6330329122       19.6323419155  MEMB      119             0.0000000000
     13975       119  POPC      O12           -43.3683731836       37.8457974937       18.4519691894  MEMB      119             0.0000000000
     13976       119  POPC      O11           -41.4511604351       36.2665138238       18.5906737526  MEMB      119             0.0000000000
     13977       119  POPC      C1            -40.0354311696       36.2888504681       18.3690948686  MEMB      119             0.0000000000
     13978       119  POPC      HA            -39.7523401944       35.2429550231       18.6146211309  MEMB      119             0.0000000000
     13979       119  POPC      HB            -39.4421642605       36.8056517568       19.1534875591  MEMB      119             0.0000000000
     13980       119  POPC      C2            -39.7624795914       36.7682270348       16.8954045679  MEMB      119             0.0000000000
     13981       119  POPC      HS            -38.6929100557       37.0207931339       16.7324552926  MEMB      119             0.0000000000
     13982       119  POPC      O21           -40.3809055903       38.0822391925       16.7301265945  MEMB      119             0.0000000000
     13983       119  POPC      C21           -40.1320434247       38.7486919661       15.6126041874  MEMB      119             0.0000000000
     13984       119  POPC      O22           -39.5233932275       38.3561788394       14.6219219733  MEMB      119             0.0000000000
     13985       119  POPC      C22           -40.5637958598       40.2495539587       15.6507726288  MEMB      119             0.0000000000
     13986       119  POPC      H2R           -39.6761640001       40.8931290697       15.8303316866  MEMB      119             0.0000000000
     13987       119  POPC      H2S           -41.3160725516       40.4183901885       16.4507072113  MEMB      119             0.0000000000
     13988       119  POPC      C3            -40.2811553205       35.6633755538       15.9214146650  MEMB      119             0.0000000000
     13989       119  POPC      HX            -40.1664613647       34.6524585044       16.3677474639  MEMB      119             0.0000000000
     13990       119  POPC      HY            -39.8067459373       35.6672653332       14.9168046054  MEMB      119             0.0000000000
     13991       119  POPC      O31           -41.6572299387       35.8926757347       15.7081129071  MEMB      119             0.0000000000
     13992       119  POPC      C31           -42.3339234585       34.9854888134       15.0147460733  MEMB      119             0.0000000000
     13993       119  POPC      O32           -41.8245369494       33.8948407643       14.6540046695  MEMB      119             0.0000000000
     13994       119  POPC      C32           -43.7182923240       35.4146082277       14.7359424822  MEMB      119             0.0000000000
     13995       119  POPC      H2X           -43.7571829805       36.5064038590       14.5339752295  MEMB      119             0.0000000000
     13996       119  POPC      H2Y           -44.3149631942       35.1115268796       15.6227606047  MEMB      119             0.0000000000
     13997       119  POPC      C23           -41.1388048281       40.6249168521       14.2469225585  MEMB      119             0.0000000000
     13998       119  POPC      H3R           -40.3609894164       40.3433351215       13.5052787850  MEMB      119             0.0000000000
     13999       119  POPC      H3S           -41.2715628255       41.7207237627       14.1208141154  MEMB      119             0.0000000000
     14000       119  POPC      C24           -42.4369038652       39.9231646008       13.6827214086  MEMB      119             0.0000000000
     14001       119  POPC      H4R           -43.3080679885       40.1470275680       14.3348560124  MEMB      119             0.0000000000
     14002       119  POPC      H4S           -42.3022120233       38.8216923666       13.7369245586  MEMB      119             0.0000000000
     14003       119  POPC      C25           -42.8540928355       40.2756621046       12.2557868811  MEMB      119             0.0000000000
     14004       119  POPC      H5R           -42.0947474845       39.8449030959       11.5686465201  MEMB      119             0.0000000000
     14005       119  POPC      H5S           -42.9376028811       41.3806658251       12.1763266335  MEMB      119             0.0000000000
     14006       119  POPC      C26           -44.2115004830       39.6057183568       11.8841439935  MEMB      119             0.0000000000
     14007       119  POPC      H6R           -45.0130546326       40.2324609465       12.3302666986  MEMB      119             0.0000000000
     14008       119  POPC      H6S           -44.2951957879       38.5985313732       12.3455443880  MEMB      119             0.0000000000
     14009       119  POPC      C27           -44.4025345978       39.5482057828       10.3528030206  MEMB      119             0.0000000000
     14010       119  POPC      H7R           -43.5353462062       39.0641348241        9.8548267958  MEMB      119             0.0000000000
     14011       119  POPC      H7S           -44.3555604324       40.6229808613       10.0753632990  MEMB      119             0.0000000000
     14012       119  POPC      C28           -45.6356987625       38.6561857141       10.0859735579  MEMB      119             0.0000000000
     14013       119  POPC      H8R           -46.3559328193       39.0659899750       10.8260028575  MEMB      119             0.0000000000
     14014       119  POPC      H8S           -45.3505577023       37.6498429430       10.4605258920  MEMB      119             0.0000000000
     14015       119  POPC      C29           -46.2668706362       38.7197179217        8.7130983456  MEMB      119             0.0000000000
     14016       119  POPC      H91           -46.4209185815       39.7398018360        8.3313947714  MEMB      119             0.0000000000
     14017       119  POPC      C210          -46.4677300697       37.6447076791        7.9100799795  MEMB      119             0.0000000000
     14018       119  POPC      H101          -46.9979832387       37.8882724999        6.9776054432  MEMB      119             0.0000000000
     14019       119  POPC      C211          -46.1825878956       36.1736773243        8.0910191428  MEMB      119             0.0000000000
     14020       119  POPC      H11R          -46.9652443504       35.8735078139        8.8201741238  MEMB      119             0.0000000000
     14021       119  POPC      H11S          -45.1936876086       36.1334954802        8.5957791744  MEMB      119             0.0000000000
     14022       119  POPC      C212          -46.2137619817       35.3087585692        6.8103158318  MEMB      119             0.0000000000
     14023       119  POPC      H12R          -47.1495201388       35.5681622789        6.2705127593  MEMB      119             0.0000000000
     14024       119  POPC      H12S          -46.2806958089       34.2722309512        7.2045873986  MEMB      119             0.0000000000
     14025       119  POPC      C213          -44.9768499932       35.3846191094        5.9090658938  MEMB      119             0.0000000000
     14026       119  POPC      H13R          -44.1675311099       34.8582913405        6.4588868698  MEMB      119             0.0000000000
     14027       119  POPC      H13S          -44.8138858357       36.4683640747        5.7266904841  MEMB      119             0.0000000000
     14028       119  POPC      C214          -45.1108697871       34.6110077295        4.5864182549  MEMB      119             0.0000000000
     14029       119  POPC      H14R          -46.0716744320       34.6530523958        4.0301732407  MEMB      119             0.0000000000
     14030       119  POPC      H14S          -44.9732299633       33.5815506172        4.9808726478  MEMB      119             0.0000000000
     14031       119  POPC      C215          -44.0329329273       34.8577252211        3.4696542778  MEMB      119             0.0000000000
     14032       119  POPC      H15R          -44.2822073711       35.8507359781        3.0382466102  MEMB      119             0.0000000000
     14033       119  POPC      H15S          -44.2122662794       34.1666281273        2.6184517503  MEMB      119             0.0000000000
     14034       119  POPC      C216          -42.5510450461       34.8550219383        3.8286346252  MEMB      119             0.0000000000
     14035       119  POPC      H16R          -42.3085077355       34.1430704548        4.6463278910  MEMB      119             0.0000000000
     14036       119  POPC      H16S          -42.4455730806       35.9196743405        4.1281546731  MEMB      119             0.0000000000
     14037       119  POPC      C217          -41.5755569310       34.4928022941        2.6959818408  MEMB      119             0.0000000000
     14038       119  POPC      H17R          -41.8071928094       33.4407327811        2.4242901264  MEMB      119             0.0000000000
     14039       119  POPC      H17S          -40.5015349651       34.4743062460        2.9796283656  MEMB      119             0.0000000000
     14040       119  POPC      C218          -41.7970008613       35.3026271474        1.3942276944  MEMB      119             0.0000000000
     14041       119  POPC      H18R          -41.8083980354       36.4129554798        1.4311349213  MEMB      119             0.0000000000
     14042       119  POPC      H18S          -42.7053299924       34.9194331558        0.8819571896  MEMB      119             0.0000000000
     14043       119  POPC      H18T          -41.0382538008       35.0664709117        0.6177913646  MEMB      119             0.0000000000
     14044       119  POPC      C33           -44.3775863388       34.6693110613       13.5392016632  MEMB      119             0.0000000000
     14045       119  POPC      H3X           -45.4827378862       34.7776595137       13.5741547291  MEMB      119             0.0000000000
     14046       119  POPC      H3Y           -44.2770924471       33.5656593123       13.6177786120  MEMB      119             0.0000000000
     14047       119  POPC      C34           -44.0925394741       35.2152179480       12.1168990378  MEMB      119             0.0000000000
     14048       119  POPC      H4X           -44.6433063073       36.1794436818       12.1521935109  MEMB      119             0.0000000000
     14049       119  POPC      H4Y           -44.6443457653       34.7018371634       11.3006452085  MEMB      119             0.0000000000
     14050       119  POPC      C35           -42.6240159691       35.4731161575       11.6489065284  MEMB      119             0.0000000000
     14051       119  POPC      H5X           -41.9438039656       34.6735610864       12.0126978846  MEMB      119             0.0000000000
     14052       119  POPC      H5Y           -42.2811676538       36.4021241697       12.1526130971  MEMB      119             0.0000000000
     14053       119  POPC      C36           -42.5285030585       35.8196365085       10.1651863172  MEMB      119             0.0000000000
     14054       119  POPC      H6X           -43.4314485578       36.4345510210        9.9629720440  MEMB      119             0.0000000000
     14055       119  POPC      H6Y           -42.6765626695       34.8685882019        9.6102928823  MEMB      119             0.0000000000
     14056       119  POPC      C37           -41.2029245227       36.4152477798        9.7092432143  MEMB      119             0.0000000000
     14057       119  POPC      H7X           -40.4229016595       35.6431865158        9.8818894200  MEMB      119             0.0000000000
     14058       119  POPC      H7Y           -40.9746548775       37.3055485519       10.3334054636  MEMB      119             0.0000000000
     14059       119  POPC      C38           -41.0634220422       36.6687832980        8.2010130478  MEMB      119             0.0000000000
     14060       119  POPC      H8X           -41.1255828960       35.6210546571        7.8367024327  MEMB      119             0.0000000000
     14061       119  POPC      H8Y           -40.0117506734       36.9512706255        7.9807644167  MEMB      119             0.0000000000
     14062       119  POPC      C39           -41.9544340486       37.7425990397        7.5284407391  MEMB      119             0.0000000000
     14063       119  POPC      H9X           -42.9909424992       37.5496558353        7.8787886271  MEMB      119             0.0000000000
     14064       119  POPC      H9Y           -42.0484664706       37.4715199457        6.4551300315  MEMB      119             0.0000000000
     14065       119  POPC      C310          -41.4371588123       39.1939023976        7.6037081002  MEMB      119             0.0000000000
     14066       119  POPC      H10X          -40.4357336293       39.2315295142        7.1240692238  MEMB      119             0.0000000000
     14067       119  POPC      H10Y          -41.3164861127       39.4079673489        8.6871907651  MEMB      119             0.0000000000
     14068       119  POPC      C311          -42.3004429401       40.2588813619        6.9062629501  MEMB      119             0.0000000000
     14069       119  POPC      H11X          -41.7340947730       41.2032460796        6.7587983254  MEMB      119             0.0000000000
     14070       119  POPC      H11Y          -42.9309139909       40.6334386246        7.7408491739  MEMB      119             0.0000000000
     14071       119  POPC      C312          -43.0623917609       39.9892341814        5.6154820461  MEMB      119             0.0000000000
     14072       119  POPC      H12X          -43.5525634606       39.0004190358        5.7431445193  MEMB      119             0.0000000000
     14073       119  POPC      H12Y          -42.3550544354       39.8952393510        4.7639195171  MEMB      119             0.0000000000
     14074       119  POPC      C313          -44.0258599161       41.0697721558        5.0914432689  MEMB      119             0.0000000000
     14075       119  POPC      H13X          -43.4822278647       42.0334663734        5.1918346904  MEMB      119             0.0000000000
     14076       119  POPC      H13Y          -44.9486121127       41.1408907665        5.7060911165  MEMB      119             0.0000000000
     14077       119  POPC      C314          -44.6842732031       40.7691177707        3.6950690408  MEMB      119             0.0000000000
     14078       119  POPC      H14X          -45.5397923058       40.1069066382        3.9478227776  MEMB      119             0.0000000000
     14079       119  POPC      H14Y          -43.9283551842       40.2596009082        3.0600085900  MEMB      119             0.0000000000
     14080       119  POPC      C315          -45.1145581565       41.9757823384        2.8072815433  MEMB      119             0.0000000000
     14081       119  POPC      H15X          -45.6089435262       42.6701421351        3.5198596418  MEMB      119             0.0000000000
     14082       119  POPC      H15Y          -45.8327790642       41.7250911623        1.9975691517  MEMB      119             0.0000000000
     14083       119  POPC      C316          -43.9444382090       42.7103432408        2.1079710200  MEMB      119             0.0000000000
     14084       119  POPC      H16X          -43.1052534254       42.0734171577        1.7552463092  MEMB      119             0.0000000000
     14085       119  POPC      H16Y          -43.4848632862       43.4866006283        2.7564594212  MEMB      119             0.0000000000
     14086       119  POPC      H16Z          -44.3022833154       43.2929350990        1.2322691150  MEMB      119             0.0000000000
     14087       120  POPC      N             -31.6798157274      -51.6569274250       17.0810213498  MEMB      120             0.0000000000
     14088       120  POPC      C12           -30.5593575738      -52.3445844933       17.9536305584  MEMB      120             0.0000000000
     14089       120  POPC      H12A          -29.6572609636      -52.1157766643       17.4056626723  MEMB      120             0.0000000000
     14090       120  POPC      H12B          -30.7103090595      -53.4124873543       17.8970880080  MEMB      120             0.0000000000
     14091       120  POPC      C13           -33.0417913781      -51.7884144588       17.7161574314  MEMB      120             0.0000000000
     14092       120  POPC      H13A          -33.3354654663      -52.8276121049       17.7311147828  MEMB      120             0.0000000000
     14093       120  POPC      H13B          -32.9212396050      -51.3128864222       18.6783114875  MEMB      120             0.0000000000
     14094       120  POPC      H13C          -33.7704707487      -51.2071898018       17.1706264516  MEMB      120             0.0000000000
     14095       120  POPC      C14           -31.5058476961      -50.1845893146       16.9490395196  MEMB      120             0.0000000000
     14096       120  POPC      H14A          -31.6567922248      -49.6594639258       17.8806289302  MEMB      120             0.0000000000
     14097       120  POPC      H14B          -30.5962180237      -49.7824550591       16.5280142147  MEMB      120             0.0000000000
     14098       120  POPC      H14C          -32.3119103219      -49.8055789828       16.3382905347  MEMB      120             0.0000000000
     14099       120  POPC      C15           -31.6358574057      -52.4007095191       15.7439994494  MEMB      120             0.0000000000
     14100       120  POPC      H15A          -32.0718448099      -53.3834122747       15.8470051462  MEMB      120             0.0000000000
     14101       120  POPC      H15B          -30.6048239595      -52.5109176354       15.4419659490  MEMB      120             0.0000000000
     14102       120  POPC      H15C          -32.1834050611      -51.8563693738       14.9888268608  MEMB      120             0.0000000000
     14103       120  POPC      C11           -30.3109483047      -51.8859960716       19.4069955756  MEMB      120             0.0000000000
     14104       120  POPC      H11A          -29.6582318105      -52.6759976631       19.8361571268  MEMB      120             0.0000000000
     14105       120  POPC      H11B          -31.2808572059      -52.0513585265       19.9229927071  MEMB      120             0.0000000000
     14106       120  POPC      P             -29.3420427126      -50.1001109416       20.9300987995  MEMB      120             0.0000000000
     14107       120  POPC      O13           -28.7756056485      -51.2953831834       21.6461351787  MEMB      120             0.0000000000
     14108       120  POPC      O14           -30.4570570481      -49.3348533944       21.5980686361  MEMB      120             0.0000000000
     14109       120  POPC      O12           -29.8299994704      -50.5759052045       19.4897236008  MEMB      120             0.0000000000
     14110       120  POPC      O11           -28.0709601829      -49.1566734777       20.4851298485  MEMB      120             0.0000000000
     14111       120  POPC      C1            -27.0142821959      -49.9441593105       19.8813138407  MEMB      120             0.0000000000
     14112       120  POPC      HA            -27.3137684331      -50.9628054812       19.5542223451  MEMB      120             0.0000000000
     14113       120  POPC      HB            -26.3220584782      -50.2648185928       20.6889804378  MEMB      120             0.0000000000
     14114       120  POPC      C2            -26.4694344344      -49.2253821484       18.5789347066  MEMB      120             0.0000000000
     14115       120  POPC      HS            -25.9525006110      -48.3361537399       18.9989024930  MEMB      120             0.0000000000
     14116       120  POPC      O21           -27.5722965249      -48.8485331188       17.7157035975  MEMB      120             0.0000000000
     14117       120  POPC      C21           -27.4480154535      -47.7077109042       17.0292553853  MEMB      120             0.0000000000
     14118       120  POPC      O22           -26.4010888124      -47.1043754794       17.0584610935  MEMB      120             0.0000000000
     14119       120  POPC      C22           -28.7903981734      -47.5037120616       16.3238218676  MEMB      120             0.0000000000
     14120       120  POPC      H2R           -29.1978619202      -46.9662958921       17.2067025765  MEMB      120             0.0000000000
     14121       120  POPC      H2S           -29.4185606009      -48.3955989764       16.1134155228  MEMB      120             0.0000000000
     14122       120  POPC      C3            -25.4980253064      -50.2044884659       17.8263987124  MEMB      120             0.0000000000
     14123       120  POPC      HX            -24.6834760138      -50.5305827780       18.5079358766  MEMB      120             0.0000000000
     14124       120  POPC      HY            -25.1136260022      -49.5983251985       16.9783866312  MEMB      120             0.0000000000
     14125       120  POPC      O31           -26.1420730592      -51.4397599151       17.3748289851  MEMB      120             0.0000000000
     14126       120  POPC      C31           -26.6540584597      -51.4632887794       16.0987646056  MEMB      120             0.0000000000
     14127       120  POPC      O32           -26.5846539252      -50.5934841478       15.2691756251  MEMB      120             0.0000000000
     14128       120  POPC      C32           -27.2329747322      -52.8570361248       15.8880924997  MEMB      120             0.0000000000
     14129       120  POPC      H2X           -28.3397844514      -52.8151324687       15.9749096538  MEMB      120             0.0000000000
     14130       120  POPC      H2Y           -26.8746632196      -53.6124098797       16.6197648932  MEMB      120             0.0000000000
     14131       120  POPC      C23           -28.5314678309      -46.6646098725       15.1162692715  MEMB      120             0.0000000000
     14132       120  POPC      H3R           -27.8616145562      -45.8428947111       15.4485361970  MEMB      120             0.0000000000
     14133       120  POPC      H3S           -29.4546183844      -46.0960570480       14.8736546486  MEMB      120             0.0000000000
     14134       120  POPC      C24           -27.7875073084      -47.4306327798       14.0839375619  MEMB      120             0.0000000000
     14135       120  POPC      H4R           -27.0410039608      -48.1402837878       14.5004099553  MEMB      120             0.0000000000
     14136       120  POPC      H4S           -27.2823065273      -46.6052212982       13.5382369784  MEMB      120             0.0000000000
     14137       120  POPC      C25           -28.5293395712      -48.1495185012       12.8692783303  MEMB      120             0.0000000000
     14138       120  POPC      H5R           -29.2054039607      -47.3200281207       12.5706087235  MEMB      120             0.0000000000
     14139       120  POPC      H5S           -29.1955282158      -49.0026486937       13.1196429759  MEMB      120             0.0000000000
     14140       120  POPC      C26           -27.6028537312      -48.4398082655       11.6538473643  MEMB      120             0.0000000000
     14141       120  POPC      H6R           -27.2018982342      -47.4796790519       11.2643508450  MEMB      120             0.0000000000
     14142       120  POPC      H6S           -28.2121742024      -48.8726215550       10.8318236670  MEMB      120             0.0000000000
     14143       120  POPC      C27           -26.3759359360      -49.2242911648       12.1086519952  MEMB      120             0.0000000000
     14144       120  POPC      H7R           -26.7474058779      -50.2276427136       12.4080127306  MEMB      120             0.0000000000
     14145       120  POPC      H7S           -25.8002447036      -48.7653737008       12.9406948876  MEMB      120             0.0000000000
     14146       120  POPC      C28           -25.3912902911      -49.4598491650       10.9835710887  MEMB      120             0.0000000000
     14147       120  POPC      H8R           -24.5048730500      -50.0093761143       11.3664621690  MEMB      120             0.0000000000
     14148       120  POPC      H8S           -25.0689531791      -48.4586484397       10.6257766094  MEMB      120             0.0000000000
     14149       120  POPC      C29           -26.0285022671      -50.2533506779        9.8067324078  MEMB      120             0.0000000000
     14150       120  POPC      H91           -26.0137416808      -51.3522284736        9.8541632902  MEMB      120             0.0000000000
     14151       120  POPC      C210          -26.5564542792      -49.6815815932        8.6839543837  MEMB      120             0.0000000000
     14152       120  POPC      H101          -26.8999641056      -50.3012693867        7.8425334493  MEMB      120             0.0000000000
     14153       120  POPC      C211          -26.6017567752      -48.1693846251        8.3848272925  MEMB      120             0.0000000000
     14154       120  POPC      H11R          -25.6867989948      -47.9662503608        7.7882453242  MEMB      120             0.0000000000
     14155       120  POPC      H11S          -26.5392626065      -47.6428332821        9.3611260363  MEMB      120             0.0000000000
     14156       120  POPC      C212          -27.8282994537      -47.5046868660        7.6876122439  MEMB      120             0.0000000000
     14157       120  POPC      H12R          -27.5401882411      -46.4688904353        7.4075435756  MEMB      120             0.0000000000
     14158       120  POPC      H12S          -28.7263838828      -47.3607743239        8.3256205208  MEMB      120             0.0000000000
     14159       120  POPC      C213          -28.3871043727      -48.1051871858        6.3803685862  MEMB      120             0.0000000000
     14160       120  POPC      H13R          -29.0465183712      -47.2927436340        6.0069663707  MEMB      120             0.0000000000
     14161       120  POPC      H13S          -28.9344158110      -49.0489131858        6.5904935129  MEMB      120             0.0000000000
     14162       120  POPC      C214          -27.2680565560      -48.4176628445        5.3942533158  MEMB      120             0.0000000000
     14163       120  POPC      H14R          -26.5669364658      -49.2142475505        5.7231978387  MEMB      120             0.0000000000
     14164       120  POPC      H14S          -26.6052182493      -47.5273992493        5.4432132432  MEMB      120             0.0000000000
     14165       120  POPC      C215          -27.5811582720      -48.8421969329        3.9334197823  MEMB      120             0.0000000000
     14166       120  POPC      H15R          -28.5257273579      -48.3318478868        3.6476679736  MEMB      120             0.0000000000
     14167       120  POPC      H15S          -27.8993362544      -49.8956679311        3.7808336778  MEMB      120             0.0000000000
     14168       120  POPC      C216          -26.5031868865      -48.4556172588        2.9377646515  MEMB      120             0.0000000000
     14169       120  POPC      H16R          -25.5901596155      -48.9729656014        3.3025276193  MEMB      120             0.0000000000
     14170       120  POPC      H16S          -26.4153406140      -47.3490765127        2.9843638752  MEMB      120             0.0000000000
     14171       120  POPC      C217          -26.8598755063      -48.9517728171        1.5189386672  MEMB      120             0.0000000000
     14172       120  POPC      H17R          -26.9164046521      -50.0595087939        1.5825506673  MEMB      120             0.0000000000
     14173       120  POPC      H17S          -25.9906377451      -48.7134878692        0.8693477539  MEMB      120             0.0000000000
     14174       120  POPC      C218          -28.1412580444      -48.5277627373        0.7563108345  MEMB      120             0.0000000000
     14175       120  POPC      H18R          -28.1031615296      -48.8884847873       -0.2938069903  MEMB      120             0.0000000000
     14176       120  POPC      H18S          -28.1773425119      -47.4180399294        0.7171367034  MEMB      120             0.0000000000
     14177       120  POPC      H18T          -29.0028963271      -48.9357542779        1.3267891379  MEMB      120             0.0000000000
     14178       120  POPC      C33           -26.7887089337      -53.5151471864       14.6074734195  MEMB      120             0.0000000000
     14179       120  POPC      H3X           -25.7139768929      -53.7940062709       14.6463263012  MEMB      120             0.0000000000
     14180       120  POPC      H3Y           -26.8743692533      -52.8351413518       13.7330734046  MEMB      120             0.0000000000
     14181       120  POPC      C34           -27.6263280490      -54.7526999948       14.3294948429  MEMB      120             0.0000000000
     14182       120  POPC      H4X           -27.7271224819      -55.4210614332       15.2112287558  MEMB      120             0.0000000000
     14183       120  POPC      H4Y           -27.0861661666      -55.3722952132       13.5820675154  MEMB      120             0.0000000000
     14184       120  POPC      C35           -29.0422342735      -54.5073328029       13.7110879713  MEMB      120             0.0000000000
     14185       120  POPC      H5X           -29.6501789905      -54.1046345820       14.5492754981  MEMB      120             0.0000000000
     14186       120  POPC      H5Y           -29.4973134991      -55.4853026817       13.4450070711  MEMB      120             0.0000000000
     14187       120  POPC      C36           -29.2471471661      -53.4783322155       12.6538203801  MEMB      120             0.0000000000
     14188       120  POPC      H6X           -29.0187170799      -52.4975550966       13.1230936952  MEMB      120             0.0000000000
     14189       120  POPC      H6Y           -30.3373756057      -53.4633824869       12.4405144970  MEMB      120             0.0000000000
     14190       120  POPC      C37           -28.6065776640      -53.7972402196       11.3123986136  MEMB      120             0.0000000000
     14191       120  POPC      H7X           -28.7253414710      -54.8645594317       11.0277125253  MEMB      120             0.0000000000
     14192       120  POPC      H7Y           -27.5208487400      -53.6491406472       11.4956476270  MEMB      120             0.0000000000
     14193       120  POPC      C38           -29.0024679228      -52.7738947560       10.1944459052  MEMB      120             0.0000000000
     14194       120  POPC      H8X           -28.5338039986      -51.7947368305       10.4309306680  MEMB      120             0.0000000000
     14195       120  POPC      H8Y           -30.1121898010      -52.8059998358       10.2369600805  MEMB      120             0.0000000000
     14196       120  POPC      C39           -28.4782556405      -53.2339622246        8.8432536895  MEMB      120             0.0000000000
     14197       120  POPC      H9X           -28.5061557767      -54.3436493529        8.7970266550  MEMB      120             0.0000000000
     14198       120  POPC      H9Y           -27.4069881901      -52.9469565936        8.7774141698  MEMB      120             0.0000000000
     14199       120  POPC      C310          -29.3353044612      -52.6701547290        7.7256371966  MEMB      120             0.0000000000
     14200       120  POPC      H10X          -29.6374039275      -51.6052911505        7.8211481035  MEMB      120             0.0000000000
     14201       120  POPC      H10Y          -30.3279205682      -53.1691878204        7.7264076361  MEMB      120             0.0000000000
     14202       120  POPC      C311          -28.7325980786      -52.8430691118        6.2647312177  MEMB      120             0.0000000000
     14203       120  POPC      H11X          -28.4905080438      -53.9065529878        6.0532722644  MEMB      120             0.0000000000
     14204       120  POPC      H11Y          -27.8057329263      -52.2351991889        6.3404681664  MEMB      120             0.0000000000
     14205       120  POPC      C312          -29.6246351811      -52.2885568243        5.1842098400  MEMB      120             0.0000000000
     14206       120  POPC      H12X          -29.5015989137      -51.1856869791        5.1307198502  MEMB      120             0.0000000000
     14207       120  POPC      H12Y          -30.6867532817      -52.3945309991        5.4924242240  MEMB      120             0.0000000000
     14208       120  POPC      C313          -29.1856534659      -52.8915502599        3.8055451635  MEMB      120             0.0000000000
     14209       120  POPC      H13X          -29.5041702028      -53.9550301991        3.7622048349  MEMB      120             0.0000000000
     14210       120  POPC      H13Y          -28.0762854927      -52.9517454663        3.8051390333  MEMB      120             0.0000000000
     14211       120  POPC      C314          -29.6025254422      -52.0475056156        2.5462558998  MEMB      120             0.0000000000
     14212       120  POPC      H14X          -29.1982362556      -52.4971261361        1.6142086770  MEMB      120             0.0000000000
     14213       120  POPC      H14Y          -29.3305959375      -50.9725235283        2.6154574692  MEMB      120             0.0000000000
     14214       120  POPC      C315          -31.1552068500      -52.0511441039        2.3779813508  MEMB      120             0.0000000000
     14215       120  POPC      H15X          -31.5969092729      -51.4210247740        3.1793362699  MEMB      120             0.0000000000
     14216       120  POPC      H15Y          -31.6079724775      -53.0485409266        2.5637870729  MEMB      120             0.0000000000
     14217       120  POPC      C316          -31.6662452960      -51.3461639983        1.1075478911  MEMB      120             0.0000000000
     14218       120  POPC      H16X          -31.3966166348      -51.8157976104        0.1374630626  MEMB      120             0.0000000000
     14219       120  POPC      H16Y          -31.2301513627      -50.3308903808        1.2231438350  MEMB      120             0.0000000000
     14220       120  POPC      H16Z          -32.7645260520      -51.1953101306        1.0344428017  MEMB      120             0.0000000000
     14221       121  POPC      N              40.5317407813       39.8951363022       19.8613531388  MEMB      121             0.0000000000
     14222       121  POPC      C12            41.3969650262       40.9627831999       19.1134103471  MEMB      121             0.0000000000
     14223       121  POPC      H12A           40.8196015783       41.8737236469       19.1703232343  MEMB      121             0.0000000000
     14224       121  POPC      H12B           41.5412404087       40.4923198774       18.1520316751  MEMB      121             0.0000000000
     14225       121  POPC      C13            41.3063146871       38.5971530539       19.9303109764  MEMB      121             0.0000000000
     14226       121  POPC      H13A           40.7142083036       38.0025544292       20.6102098843  MEMB      121             0.0000000000
     14227       121  POPC      H13B           41.4185093686       38.1908591613       18.9359581491  MEMB      121             0.0000000000
     14228       121  POPC      H13C           42.2701408535       38.6897147177       20.4087160781  MEMB      121             0.0000000000
     14229       121  POPC      C14            40.2332885201       40.4729538646       21.1736152662  MEMB      121             0.0000000000
     14230       121  POPC      H14A           39.9205409476       41.4967570260       21.0307305165  MEMB      121             0.0000000000
     14231       121  POPC      H14B           39.3686868375       39.9518467786       21.5574271901  MEMB      121             0.0000000000
     14232       121  POPC      H14C           41.1025457116       40.2313502558       21.7672645615  MEMB      121             0.0000000000
     14233       121  POPC      C15            39.2002085399       39.8015730067       19.1460086433  MEMB      121             0.0000000000
     14234       121  POPC      H15A           38.5922445184       39.0602641752       19.6432420641  MEMB      121             0.0000000000
     14235       121  POPC      H15B           39.3921008199       39.4864470915       18.1309849580  MEMB      121             0.0000000000
     14236       121  POPC      H15C           38.7442066929       40.7800499397       19.1136772701  MEMB      121             0.0000000000
     14237       121  POPC      C11            42.8568143798       41.2214543464       19.6248038609  MEMB      121             0.0000000000
     14238       121  POPC      H11A           42.9911276598       41.0063565639       20.7064756816  MEMB      121             0.0000000000
     14239       121  POPC      H11B           43.2121531274       42.2124280670       19.2698019029  MEMB      121             0.0000000000
     14240       121  POPC      P              44.8748616378       40.5610642600       18.0019178224  MEMB      121             0.0000000000
     14241       121  POPC      O13            45.3899583072       39.2514413939       17.4619025651  MEMB      121             0.0000000000
     14242       121  POPC      O14            45.8193675114       41.3677958114       18.7402420766  MEMB      121             0.0000000000
     14243       121  POPC      O12            43.7030959926       40.2087783227       18.9821375598  MEMB      121             0.0000000000
     14244       121  POPC      O11            44.1300803126       41.4446584409       16.9642977452  MEMB      121             0.0000000000
     14245       121  POPC      C1             43.0236006460       40.9687452867       16.2404058989  MEMB      121             0.0000000000
     14246       121  POPC      HA             42.3900159346       41.8366638601       15.9582554658  MEMB      121             0.0000000000
     14247       121  POPC      HB             42.4373314667       40.2150181836       16.8083009734  MEMB      121             0.0000000000
     14248       121  POPC      C2             43.3253194523       40.2437260344       14.9114982540  MEMB      121             0.0000000000
     14249       121  POPC      HS             44.1376548873       39.4858598503       14.9030689874  MEMB      121             0.0000000000
     14250       121  POPC      O21            43.6744661273       41.2210619956       13.8510172702  MEMB      121             0.0000000000
     14251       121  POPC      C21            44.9107683830       41.2199268555       13.2913051322  MEMB      121             0.0000000000
     14252       121  POPC      O22            45.7548741607       40.3541026138       13.4432293593  MEMB      121             0.0000000000
     14253       121  POPC      C22            45.0910102823       42.4019036273       12.3650451789  MEMB      121             0.0000000000
     14254       121  POPC      H2R            46.1918536657       42.5365441203       12.2991949054  MEMB      121             0.0000000000
     14255       121  POPC      H2S            44.5353945060       43.2916953367       12.7309451637  MEMB      121             0.0000000000
     14256       121  POPC      C3             42.1475669952       39.4934264293       14.3079593428  MEMB      121             0.0000000000
     14257       121  POPC      HX             41.7757690537       38.8398018005       15.1257993798  MEMB      121             0.0000000000
     14258       121  POPC      HY             42.3224612594       38.9700418770       13.3436969964  MEMB      121             0.0000000000
     14259       121  POPC      O31            41.2209059639       40.4832150840       14.0269949952  MEMB      121             0.0000000000
     14260       121  POPC      C31            40.0045304762       40.0433268795       13.9955603314  MEMB      121             0.0000000000
     14261       121  POPC      O32            39.6448456354       38.9312482845       14.3552452661  MEMB      121             0.0000000000
     14262       121  POPC      C32            39.0049159148       41.0440039179       13.3659817519  MEMB      121             0.0000000000
     14263       121  POPC      H2X            38.7905254299       41.8946756843       14.0476818004  MEMB      121             0.0000000000
     14264       121  POPC      H2Y            37.9838468818       40.6667855091       13.1436181979  MEMB      121             0.0000000000
     14265       121  POPC      C23            44.5331875107       41.9941739216       10.9610082647  MEMB      121             0.0000000000
     14266       121  POPC      H3R            44.4810931832       42.9227500798       10.3532630040  MEMB      121             0.0000000000
     14267       121  POPC      H3S            43.4841040153       41.6544500245       11.0964049830  MEMB      121             0.0000000000
     14268       121  POPC      C24            45.4280445936       40.9990303352       10.1457926993  MEMB      121             0.0000000000
     14269       121  POPC      H4R            46.1881208621       40.6235726701       10.8638703947  MEMB      121             0.0000000000
     14270       121  POPC      H4S            45.9913790927       41.5877130815        9.3905253143  MEMB      121             0.0000000000
     14271       121  POPC      C25            44.6866588100       39.8420239147        9.4420630262  MEMB      121             0.0000000000
     14272       121  POPC      H5R            43.8995583010       40.3531397944        8.8474582444  MEMB      121             0.0000000000
     14273       121  POPC      H5S            44.1274539278       39.3803611001       10.2837740533  MEMB      121             0.0000000000
     14274       121  POPC      C26            45.6297021675       38.8253094909        8.7574232430  MEMB      121             0.0000000000
     14275       121  POPC      H6R            46.4070996146       38.6727196667        9.5363274040  MEMB      121             0.0000000000
     14276       121  POPC      H6S            46.1360713897       39.2678956052        7.8730990847  MEMB      121             0.0000000000
     14277       121  POPC      C27            45.0598576617       37.4323126626        8.3394528170  MEMB      121             0.0000000000
     14278       121  POPC      H7R            44.4148522142       37.0283048127        9.1488148919  MEMB      121             0.0000000000
     14279       121  POPC      H7S            45.9216065701       36.7446992185        8.2019853391  MEMB      121             0.0000000000
     14280       121  POPC      C28            44.2542115081       37.4578241225        7.0214109919  MEMB      121             0.0000000000
     14281       121  POPC      H8R            44.1548787771       36.3887758993        6.7357722527  MEMB      121             0.0000000000
     14282       121  POPC      H8S            44.8428265912       37.9465401780        6.2157993572  MEMB      121             0.0000000000
     14283       121  POPC      C29            42.8565043353       37.9743646499        7.1591513575  MEMB      121             0.0000000000
     14284       121  POPC      H91            42.5599574699       38.0421522591        8.2162540120  MEMB      121             0.0000000000
     14285       121  POPC      C210           42.0991844703       38.5122897239        6.1680021921  MEMB      121             0.0000000000
     14286       121  POPC      H101           41.0574274192       38.8358952974        6.3094998374  MEMB      121             0.0000000000
     14287       121  POPC      C211           42.4816570740       38.7455577534        4.7077541351  MEMB      121             0.0000000000
     14288       121  POPC      H11R           42.6438717832       37.7459086011        4.2509070283  MEMB      121             0.0000000000
     14289       121  POPC      H11S           43.3672661043       39.4135261456        4.6458214134  MEMB      121             0.0000000000
     14290       121  POPC      C212           41.3698415299       39.4168679384        3.8627918920  MEMB      121             0.0000000000
     14291       121  POPC      H12R           41.7507152709       39.4154257101        2.8191176524  MEMB      121             0.0000000000
     14292       121  POPC      H12S           41.2619088847       40.4966290202        4.1010926760  MEMB      121             0.0000000000
     14293       121  POPC      C213           39.9735657403       38.8016484575        3.9114353260  MEMB      121             0.0000000000
     14294       121  POPC      H13R           39.4291479404       39.1841744031        4.8011568878  MEMB      121             0.0000000000
     14295       121  POPC      H13S           40.1621756474       37.7067915228        3.9173997038  MEMB      121             0.0000000000
     14296       121  POPC      C214           38.9304763762       39.1990669006        2.7726291332  MEMB      121             0.0000000000
     14297       121  POPC      H14R           37.9550484493       39.4997552396        3.2113173623  MEMB      121             0.0000000000
     14298       121  POPC      H14S           38.8440121728       38.4134199229        1.9918567777  MEMB      121             0.0000000000
     14299       121  POPC      C215           39.3960951079       40.5712477394        2.0442684673  MEMB      121             0.0000000000
     14300       121  POPC      H15R           40.3545763199       40.3769819384        1.5171099584  MEMB      121             0.0000000000
     14301       121  POPC      H15S           39.5780991243       41.3534628102        2.8119504360  MEMB      121             0.0000000000
     14302       121  POPC      C216           38.3999621980       41.0842031406        1.0683117607  MEMB      121             0.0000000000
     14303       121  POPC      H16R           37.5230282302       41.3481064118        1.6973280757  MEMB      121             0.0000000000
     14304       121  POPC      H16S           38.1006493978       40.2242601658        0.4317342605  MEMB      121             0.0000000000
     14305       121  POPC      C217           38.9973002906       42.2768413355        0.2045611444  MEMB      121             0.0000000000
     14306       121  POPC      H17R           38.2279358151       42.3036929111       -0.5964868434  MEMB      121             0.0000000000
     14307       121  POPC      H17S           39.9513695361       41.8354506710       -0.1549488846  MEMB      121             0.0000000000
     14308       121  POPC      C218           38.9890448676       43.6343920144        0.9074141035  MEMB      121             0.0000000000
     14309       121  POPC      H18R           39.2300930285       44.5041581772        0.2595546010  MEMB      121             0.0000000000
     14310       121  POPC      H18S           39.7350148271       43.6496055775        1.7305909065  MEMB      121             0.0000000000
     14311       121  POPC      H18T           38.0106269397       44.0414530128        1.2410615381  MEMB      121             0.0000000000
     14312       121  POPC      C33            39.6257992230       41.6315176425       12.0983750432  MEMB      121             0.0000000000
     14313       121  POPC      H3X            40.5968833868       42.0630825490       12.4225172528  MEMB      121             0.0000000000
     14314       121  POPC      H3Y            39.0306992820       42.4702623114       11.6780362122  MEMB      121             0.0000000000
     14315       121  POPC      C34            39.7446858743       40.5872496317       10.9407282883  MEMB      121             0.0000000000
     14316       121  POPC      H4X            39.0294716745       39.7750258764       11.1918895590  MEMB      121             0.0000000000
     14317       121  POPC      H4Y            40.7689415228       40.1569569095       10.9490498065  MEMB      121             0.0000000000
     14318       121  POPC      C35            39.3618488619       41.0867994718        9.5098209562  MEMB      121             0.0000000000
     14319       121  POPC      H5X            38.3189929164       41.4624907645        9.5848452653  MEMB      121             0.0000000000
     14320       121  POPC      H5Y            39.2682793287       40.1307922100        8.9515956858  MEMB      121             0.0000000000
     14321       121  POPC      C36            40.3588951843       42.0431748910        8.9017824238  MEMB      121             0.0000000000
     14322       121  POPC      H6X            41.2404934085       42.1938655579        9.5608710081  MEMB      121             0.0000000000
     14323       121  POPC      H6Y            39.8541520437       43.0089353670        8.6853060576  MEMB      121             0.0000000000
     14324       121  POPC      C37            41.0238748452       41.6215055898        7.6034342562  MEMB      121             0.0000000000
     14325       121  POPC      H7X            40.3969105684       41.3300782844        6.7337750153  MEMB      121             0.0000000000
     14326       121  POPC      H7Y            41.5826708307       40.6843471848        7.8127231279  MEMB      121             0.0000000000
     14327       121  POPC      C38            42.0229629682       42.6623658809        6.9974789590  MEMB      121             0.0000000000
     14328       121  POPC      H8X            42.6210778877       43.0266450778        7.8599638668  MEMB      121             0.0000000000
     14329       121  POPC      H8Y            41.4399768464       43.5533142922        6.6802102970  MEMB      121             0.0000000000
     14330       121  POPC      C39            42.8761292124       42.1728995976        5.8205718725  MEMB      121             0.0000000000
     14331       121  POPC      H9X            42.2137527278       42.0210000079        4.9416491538  MEMB      121             0.0000000000
     14332       121  POPC      H9Y            43.2765378902       41.1579409056        6.0299823672  MEMB      121             0.0000000000
     14333       121  POPC      C310           44.1376292999       43.0268101817        5.3683140645  MEMB      121             0.0000000000
     14334       121  POPC      H10X           44.9439782241       42.7284551989        6.0719522335  MEMB      121             0.0000000000
     14335       121  POPC      H10Y           43.9971149465       44.1196925319        5.5103879444  MEMB      121             0.0000000000
     14336       121  POPC      C311           44.7484233633       42.5360290826        4.0838551391  MEMB      121             0.0000000000
     14337       121  POPC      H11X           44.6630254468       41.4283593134        4.0740559895  MEMB      121             0.0000000000
     14338       121  POPC      H11Y           45.8030632085       42.8576412758        3.9473947537  MEMB      121             0.0000000000
     14339       121  POPC      C312           43.9454184097       43.2752918280        2.9178597354  MEMB      121             0.0000000000
     14340       121  POPC      H12X           44.4059458253       44.2376363589        2.6078136063  MEMB      121             0.0000000000
     14341       121  POPC      H12Y           42.9628911980       43.5730483362        3.3424799891  MEMB      121             0.0000000000
     14342       121  POPC      C313           43.8630297109       42.3073514215        1.6812416971  MEMB      121             0.0000000000
     14343       121  POPC      H13X           43.0958582649       42.7303306573        0.9979716353  MEMB      121             0.0000000000
     14344       121  POPC      H13Y           43.4504615092       41.3168383100        1.9693258395  MEMB      121             0.0000000000
     14345       121  POPC      C314           45.1519937870       42.3066966798        0.8778368119  MEMB      121             0.0000000000
     14346       121  POPC      H14X           46.0961338797       42.6397934602        1.3594670196  MEMB      121             0.0000000000
     14347       121  POPC      H14Y           45.0383249393       43.0867929807        0.0949905375  MEMB      121             0.0000000000
     14348       121  POPC      C315           45.4592900708       40.9568923953        0.1428786192  MEMB      121             0.0000000000
     14349       121  POPC      H15X           46.0692826172       41.2284718979       -0.7450823896  MEMB      121             0.0000000000
     14350       121  POPC      H15Y           44.5241157234       40.4809829548       -0.2221973156  MEMB      121             0.0000000000
     14351       121  POPC      C316           46.2177218948       39.8643123217        0.8627402670  MEMB      121             0.0000000000
     14352       121  POPC      H16X           45.5867321574       39.3006997023        1.5828192405  MEMB      121             0.0000000000
     14353       121  POPC      H16Y           47.0171327692       40.2717081471        1.5179451684  MEMB      121             0.0000000000
     14354       121  POPC      H16Z           46.7010135054       39.1518321153        0.1605153184  MEMB      121             0.0000000000
     14355       122  POPC      N              29.9705487547       50.1137099899       19.0474792512  MEMB      122             0.0000000000
     14356       122  POPC      C12            31.2111256605       49.4710332867       18.5298853371  MEMB      122             0.0000000000
     14357       122  POPC      H12A           31.4991740309       49.7610342406       17.5302216088  MEMB      122             0.0000000000
     14358       122  POPC      H12B           30.9455345922       48.4270504097       18.4526774928  MEMB      122             0.0000000000
     14359       122  POPC      C13            30.1750023704       51.5972328257       19.0851736234  MEMB      122             0.0000000000
     14360       122  POPC      H13A           29.2348948383       52.0453620420       19.3711425087  MEMB      122             0.0000000000
     14361       122  POPC      H13B           30.9108565252       51.9033111764       19.8140320939  MEMB      122             0.0000000000
     14362       122  POPC      H13C           30.4005627841       51.9689046606       18.0965469381  MEMB      122             0.0000000000
     14363       122  POPC      C14            28.9276291430       49.6941843223       17.9803292031  MEMB      122             0.0000000000
     14364       122  POPC      H14A           29.2880086828       50.0956703444       17.0447354279  MEMB      122             0.0000000000
     14365       122  POPC      H14B           28.9139803912       48.6145904687       17.9540461262  MEMB      122             0.0000000000
     14366       122  POPC      H14C           27.9498891724       50.1389577688       18.0925836931  MEMB      122             0.0000000000
     14367       122  POPC      C15            29.5816081387       49.6066522502       20.3754878427  MEMB      122             0.0000000000
     14368       122  POPC      H15A           30.2136447663       49.9739493065       21.1704863547  MEMB      122             0.0000000000
     14369       122  POPC      H15B           29.5479783004       48.5287009299       20.3181295640  MEMB      122             0.0000000000
     14370       122  POPC      H15C           28.6026171932       50.0043865785       20.5986116769  MEMB      122             0.0000000000
     14371       122  POPC      C11            32.5708886225       49.5745632021       19.3580451716  MEMB      122             0.0000000000
     14372       122  POPC      H11A           33.3210531448       48.9430693502       18.8357526890  MEMB      122             0.0000000000
     14373       122  POPC      H11B           32.4607259951       49.0660255959       20.3396635860  MEMB      122             0.0000000000
     14374       122  POPC      P              34.0679477627       51.5532523363       18.9089263450  MEMB      122             0.0000000000
     14375       122  POPC      O13            35.2536251676       50.6943226158       19.2553646719  MEMB      122             0.0000000000
     14376       122  POPC      O14            34.1699449793       52.9916978044       19.2855710947  MEMB      122             0.0000000000
     14377       122  POPC      O12            32.9304290499       50.9530086337       19.7224469364  MEMB      122             0.0000000000
     14378       122  POPC      O11            33.6619408530       51.4519993366       17.4512905277  MEMB      122             0.0000000000
     14379       122  POPC      C1             34.4479807302       50.8740035661       16.4139967640  MEMB      122             0.0000000000
     14380       122  POPC      HA             35.2707089109       50.2164243574       16.7675913145  MEMB      122             0.0000000000
     14381       122  POPC      HB             34.9359225809       51.7677762936       15.9696948168  MEMB      122             0.0000000000
     14382       122  POPC      C2             33.6764937867       50.0874001821       15.3083530422  MEMB      122             0.0000000000
     14383       122  POPC      HS             34.3685259354       49.9256676735       14.4543884943  MEMB      122             0.0000000000
     14384       122  POPC      O21            32.4528586183       50.7051462883       14.9633851928  MEMB      122             0.0000000000
     14385       122  POPC      C21            32.5681411013       51.7834814939       14.2079939473  MEMB      122             0.0000000000
     14386       122  POPC      O22            33.5964018454       52.3086764623       13.8851351539  MEMB      122             0.0000000000
     14387       122  POPC      C22            31.1310591402       52.3332722498       13.8023217953  MEMB      122             0.0000000000
     14388       122  POPC      H2R            31.2693381121       52.9250056306       12.8722404134  MEMB      122             0.0000000000
     14389       122  POPC      H2S            30.6527385026       52.9570525063       14.5874514260  MEMB      122             0.0000000000
     14390       122  POPC      C3             33.3770977882       48.6101401980       15.6121252398  MEMB      122             0.0000000000
     14391       122  POPC      HX             32.6330168437       48.6081173868       16.4371467980  MEMB      122             0.0000000000
     14392       122  POPC      HY             34.3348127205       48.2003042734       15.9983085726  MEMB      122             0.0000000000
     14393       122  POPC      O31            33.0487837420       47.9035536520       14.4218148801  MEMB      122             0.0000000000
     14394       122  POPC      C31            31.9252578645       47.2189857914       14.3288575343  MEMB      122             0.0000000000
     14395       122  POPC      O32            31.0799201931       47.0604720155       15.1693246722  MEMB      122             0.0000000000
     14396       122  POPC      C32            31.8286409160       46.6553384390       12.9940224301  MEMB      122             0.0000000000
     14397       122  POPC      H2X            30.8103481190       46.7862605765       12.5694520255  MEMB      122             0.0000000000
     14398       122  POPC      H2Y            32.0020920774       45.5624359084       13.0930147088  MEMB      122             0.0000000000
     14399       122  POPC      C23            30.2132661500       51.1631230078       13.4388681433  MEMB      122             0.0000000000
     14400       122  POPC      H3R            29.9989440953       50.5307018016       14.3268045239  MEMB      122             0.0000000000
     14401       122  POPC      H3S            30.6639972870       50.6282505527       12.5756916633  MEMB      122             0.0000000000
     14402       122  POPC      C24            28.8469221077       51.5640437581       12.8297129145  MEMB      122             0.0000000000
     14403       122  POPC      H4R            28.9516119097       52.3049845407       12.0085139551  MEMB      122             0.0000000000
     14404       122  POPC      H4S            28.3620272725       51.9311347436       13.7594668642  MEMB      122             0.0000000000
     14405       122  POPC      C25            27.9631741923       50.4158148194       12.4891691167  MEMB      122             0.0000000000
     14406       122  POPC      H5R            26.9794062854       50.8600107391       12.2260888085  MEMB      122             0.0000000000
     14407       122  POPC      H5S            27.8201457424       49.7284138143       13.3501826712  MEMB      122             0.0000000000
     14408       122  POPC      C26            28.2503575077       49.4349103557       11.2793681634  MEMB      122             0.0000000000
     14409       122  POPC      H6R            27.3386044526       48.8249991917       11.1031979152  MEMB      122             0.0000000000
     14410       122  POPC      H6S            29.0655644104       48.7498908179       11.5963958649  MEMB      122             0.0000000000
     14411       122  POPC      C27            28.6673226222       50.1058370619       10.0094021866  MEMB      122             0.0000000000
     14412       122  POPC      H7R            28.6425338989       49.3790545996        9.1694647614  MEMB      122             0.0000000000
     14413       122  POPC      H7S            29.7096016547       50.4704198720       10.1320983160  MEMB      122             0.0000000000
     14414       122  POPC      C28            27.6863506092       51.1803455571        9.5681758693  MEMB      122             0.0000000000
     14415       122  POPC      H8R            27.1224731843       51.7030559582       10.3701340067  MEMB      122             0.0000000000
     14416       122  POPC      H8S            26.9140936739       50.6401487017        8.9798505489  MEMB      122             0.0000000000
     14417       122  POPC      C29            28.4238265253       52.1877274586        8.7324175347  MEMB      122             0.0000000000
     14418       122  POPC      H91            29.2648730254       52.7173972399        9.2036821357  MEMB      122             0.0000000000
     14419       122  POPC      C210           28.2250052683       52.6041219731        7.4433609207  MEMB      122             0.0000000000
     14420       122  POPC      H101           28.9484712552       53.2845165632        6.9704333742  MEMB      122             0.0000000000
     14421       122  POPC      C211           27.1599467339       52.1193823980        6.5000238280  MEMB      122             0.0000000000
     14422       122  POPC      H11R           26.8779529109       53.0500133441        5.9626905824  MEMB      122             0.0000000000
     14423       122  POPC      H11S           26.2678755248       51.7297459006        7.0354799680  MEMB      122             0.0000000000
     14424       122  POPC      C212           27.5965901041       50.9914121827        5.5149062055  MEMB      122             0.0000000000
     14425       122  POPC      H12R           26.8192101645       50.8434329941        4.7350964860  MEMB      122             0.0000000000
     14426       122  POPC      H12S           27.6443776607       50.0227219403        6.0568261189  MEMB      122             0.0000000000
     14427       122  POPC      C213           28.9801966979       51.1717706500        4.8243208460  MEMB      122             0.0000000000
     14428       122  POPC      H13R           29.7888434758       51.1789849655        5.5861341305  MEMB      122             0.0000000000
     14429       122  POPC      H13S           28.9649487270       52.1869123916        4.3731271294  MEMB      122             0.0000000000
     14430       122  POPC      C214           29.3368195484       49.9962920929        3.8901628075  MEMB      122             0.0000000000
     14431       122  POPC      H14R           30.1853581783       50.4092782390        3.3038653483  MEMB      122             0.0000000000
     14432       122  POPC      H14S           28.3803581793       49.8700764724        3.3391898152  MEMB      122             0.0000000000
     14433       122  POPC      C215           29.6258080224       48.7101756429        4.7155399007  MEMB      122             0.0000000000
     14434       122  POPC      H15R           28.6722585853       48.5833418098        5.2713976136  MEMB      122             0.0000000000
     14435       122  POPC      H15S           30.4565016152       48.7657468550        5.4511900316  MEMB      122             0.0000000000
     14436       122  POPC      C216           29.8722560591       47.4701092227        3.8125126398  MEMB      122             0.0000000000
     14437       122  POPC      H16R           29.0479540534       47.4178940539        3.0694632757  MEMB      122             0.0000000000
     14438       122  POPC      H16S           29.6205404853       46.5519204925        4.3851293870  MEMB      122             0.0000000000
     14439       122  POPC      C217           31.2601738418       47.3708174099        3.1058649319  MEMB      122             0.0000000000
     14440       122  POPC      H17R           31.9454225477       46.9231357986        3.8570877459  MEMB      122             0.0000000000
     14441       122  POPC      H17S           31.5700880350       48.4084246383        2.8575803938  MEMB      122             0.0000000000
     14442       122  POPC      C218           31.3396472724       46.3701773073        1.9358701211  MEMB      122             0.0000000000
     14443       122  POPC      H18R           30.6431217898       46.5502060121        1.0892523415  MEMB      122             0.0000000000
     14444       122  POPC      H18S           31.1472685627       45.3457256015        2.3203300114  MEMB      122             0.0000000000
     14445       122  POPC      H18T           32.3609167070       46.1821803251        1.5409181638  MEMB      122             0.0000000000
     14446       122  POPC      C33            32.8525723230       47.1426234965       11.8965070658  MEMB      122             0.0000000000
     14447       122  POPC      H3X            32.7669946581       46.3432629531       11.1296824129  MEMB      122             0.0000000000
     14448       122  POPC      H3Y            33.8661334499       47.1990618363       12.3479820854  MEMB      122             0.0000000000
     14449       122  POPC      C34            32.5347191733       48.4799710567       11.2506839483  MEMB      122             0.0000000000
     14450       122  POPC      H4X            32.5661345636       49.3061313855       11.9928381740  MEMB      122             0.0000000000
     14451       122  POPC      H4Y            31.5138191983       48.5263532458       10.8148708257  MEMB      122             0.0000000000
     14452       122  POPC      C35            33.6138036715       48.9203671483       10.2521277874  MEMB      122             0.0000000000
     14453       122  POPC      H5X            33.4175102015       48.4699751913        9.2556650764  MEMB      122             0.0000000000
     14454       122  POPC      H5Y            34.5770282963       48.4593027808       10.5586233291  MEMB      122             0.0000000000
     14455       122  POPC      C36            33.7352372496       50.4601646190       10.0857030328  MEMB      122             0.0000000000
     14456       122  POPC      H6X            34.7685677455       50.5564832970        9.6891279660  MEMB      122             0.0000000000
     14457       122  POPC      H6Y            33.6497991696       50.9825136198       11.0625212636  MEMB      122             0.0000000000
     14458       122  POPC      C37            32.7136755045       50.9568377742        9.0607752814  MEMB      122             0.0000000000
     14459       122  POPC      H7X            31.6502751410       50.8473304929        9.3632796855  MEMB      122             0.0000000000
     14460       122  POPC      H7Y            32.9288564228       50.4476149382        8.0970787725  MEMB      122             0.0000000000
     14461       122  POPC      C38            32.8747503011       52.4088129669        8.5879007379  MEMB      122             0.0000000000
     14462       122  POPC      H8X            33.8875740534       52.8106050321        8.8048629139  MEMB      122             0.0000000000
     14463       122  POPC      H8Y            32.2505075311       53.0844699904        9.2109011251  MEMB      122             0.0000000000
     14464       122  POPC      C39            32.5882065973       52.6089389098        7.0688569507  MEMB      122             0.0000000000
     14465       122  POPC      H9X            31.9700025816       53.5189708856        6.9139816327  MEMB      122             0.0000000000
     14466       122  POPC      H9Y            31.9927656250       51.7902426506        6.6111381231  MEMB      122             0.0000000000
     14467       122  POPC      C310           33.9488137037       52.6762125440        6.2914710316  MEMB      122             0.0000000000
     14468       122  POPC      H10X           34.2305819989       51.6031432893        6.2327349578  MEMB      122             0.0000000000
     14469       122  POPC      H10Y           34.6695215647       53.2485730248        6.9138095368  MEMB      122             0.0000000000
     14470       122  POPC      C311           33.9578426437       53.2037566469        4.8526166500  MEMB      122             0.0000000000
     14471       122  POPC      H11X           35.0154726541       53.2035377805        4.5124109673  MEMB      122             0.0000000000
     14472       122  POPC      H11Y           33.5129819244       54.2003873244        4.6448979823  MEMB      122             0.0000000000
     14473       122  POPC      C312           33.2288384316       52.1906992914        3.8719110012  MEMB      122             0.0000000000
     14474       122  POPC      H12X           32.1741857633       52.0409080453        4.1874922362  MEMB      122             0.0000000000
     14475       122  POPC      H12Y           33.6539753918       51.1677448683        3.9564321154  MEMB      122             0.0000000000
     14476       122  POPC      C313           33.2406379244       52.6999743661        2.4299622482  MEMB      122             0.0000000000
     14477       122  POPC      H13X           34.2583853465       52.6213197791        1.9914135731  MEMB      122             0.0000000000
     14478       122  POPC      H13Y           32.9670614515       53.7763887575        2.4015168111  MEMB      122             0.0000000000
     14479       122  POPC      C314           32.2295326897       51.8795357547        1.6045051132  MEMB      122             0.0000000000
     14480       122  POPC      H14X           32.0415597539       52.3731109077        0.6270734070  MEMB      122             0.0000000000
     14481       122  POPC      H14Y           31.2471093769       51.6022790656        2.0430183164  MEMB      122             0.0000000000
     14482       122  POPC      C315           32.8487045064       50.5359067005        1.2508347822  MEMB      122             0.0000000000
     14483       122  POPC      H15X           32.0991057961       49.9531263343        0.6739544984  MEMB      122             0.0000000000
     14484       122  POPC      H15Y           32.9251804805       49.9412722671        2.1861868998  MEMB      122             0.0000000000
     14485       122  POPC      C316           34.0717631215       50.4113152795        0.3565947082  MEMB      122             0.0000000000
     14486       122  POPC      H16X           34.6881571767       51.3235971483        0.5053273063  MEMB      122             0.0000000000
     14487       122  POPC      H16Y           33.7112219046       50.4435249648       -0.6937825503  MEMB      122             0.0000000000
     14488       122  POPC      H16Z           34.6936931850       49.5134077233        0.5597835349  MEMB      122             0.0000000000
     14489       123  POPC      N             -50.8043499348       34.6834497165       19.0388131872  MEMB      123             0.0000000000
     14490       123  POPC      C12           -50.4000116166       33.9994185919       20.3562310795  MEMB      123             0.0000000000
     14491       123  POPC      H12A          -51.1956422167       34.1900877995       21.0612256700  MEMB      123             0.0000000000
     14492       123  POPC      H12B          -49.4658849335       34.4557060576       20.6488212569  MEMB      123             0.0000000000
     14493       123  POPC      C13           -49.6261550719       34.6815097987       18.0605232856  MEMB      123             0.0000000000
     14494       123  POPC      H13A          -48.6693410284       34.9579797494       18.4782209577  MEMB      123             0.0000000000
     14495       123  POPC      H13B          -49.5759303262       33.7023943833       17.6075215916  MEMB      123             0.0000000000
     14496       123  POPC      H13C          -49.8291388525       35.3380353316       17.2273534879  MEMB      123             0.0000000000
     14497       123  POPC      C14           -52.1488463269       34.2727783660       18.4639138924  MEMB      123             0.0000000000
     14498       123  POPC      H14A          -52.3975031134       34.9102369849       17.6283205370  MEMB      123             0.0000000000
     14499       123  POPC      H14B          -52.0275370689       33.2372298524       18.1822694242  MEMB      123             0.0000000000
     14500       123  POPC      H14C          -52.9603161419       34.4111571888       19.1630333087  MEMB      123             0.0000000000
     14501       123  POPC      C15           -50.8143550579       36.2315786286       19.4323260113  MEMB      123             0.0000000000
     14502       123  POPC      H15A          -49.8299890579       36.5046715918       19.7828171555  MEMB      123             0.0000000000
     14503       123  POPC      H15B          -51.6053858968       36.4899265622       20.1207491829  MEMB      123             0.0000000000
     14504       123  POPC      H15C          -51.0434235882       36.8111838671       18.5502911427  MEMB      123             0.0000000000
     14505       123  POPC      C11           -50.2566885787       32.4595513872       20.3164329469  MEMB      123             0.0000000000
     14506       123  POPC      H11A          -51.2408021181       32.0269497472       20.0359023343  MEMB      123             0.0000000000
     14507       123  POPC      H11B          -50.1460291179       32.1094545735       21.3650071242  MEMB      123             0.0000000000
     14508       123  POPC      P             -49.3342769874       30.6017189542       18.6911927707  MEMB      123             0.0000000000
     14509       123  POPC      O13           -50.1231398340       29.6170716411       19.4521629081  MEMB      123             0.0000000000
     14510       123  POPC      O14           -47.9616964547       30.1467105193       18.2931163787  MEMB      123             0.0000000000
     14511       123  POPC      O12           -49.2311132823       32.0617811673       19.4125390705  MEMB      123             0.0000000000
     14512       123  POPC      O11           -50.1684999547       31.1971309258       17.4827484736  MEMB      123             0.0000000000
     14513       123  POPC      C1            -49.5059363702       31.1663413798       16.2349338604  MEMB      123             0.0000000000
     14514       123  POPC      HA            -49.1636697200       30.1337191319       16.0093993336  MEMB      123             0.0000000000
     14515       123  POPC      HB            -48.6739996648       31.9017296030       16.2724381392  MEMB      123             0.0000000000
     14516       123  POPC      C2            -50.4359716515       31.5232106636       15.0763675110  MEMB      123             0.0000000000
     14517       123  POPC      HS            -49.8003894784       31.5062894927       14.1652859570  MEMB      123             0.0000000000
     14518       123  POPC      O21           -50.8330122295       32.8613080139       15.0894373398  MEMB      123             0.0000000000
     14519       123  POPC      C21           -49.9895539890       33.8974351371       14.9761958643  MEMB      123             0.0000000000
     14520       123  POPC      O22           -48.7832612040       33.8363447765       14.8614147094  MEMB      123             0.0000000000
     14521       123  POPC      C22           -50.7222879136       35.2165517264       14.7594336553  MEMB      123             0.0000000000
     14522       123  POPC      H2R           -50.4009009651       36.0346802850       15.4389166289  MEMB      123             0.0000000000
     14523       123  POPC      H2S           -51.7946247605       34.9649165130       14.9046724411  MEMB      123             0.0000000000
     14524       123  POPC      C3            -51.6473098590       30.6371843116       15.0355093591  MEMB      123             0.0000000000
     14525       123  POPC      HX            -52.3483158123       31.0130256494       15.8111734699  MEMB      123             0.0000000000
     14526       123  POPC      HY            -51.4319141227       29.5950548524       15.3547144793  MEMB      123             0.0000000000
     14527       123  POPC      O31           -52.3031749035       30.5746152204       13.7191700381  MEMB      123             0.0000000000
     14528       123  POPC      C31           -53.2802731178       31.3687110938       13.4435878604  MEMB      123             0.0000000000
     14529       123  POPC      O32           -53.6591929349       32.3071846707       14.0698951350  MEMB      123             0.0000000000
     14530       123  POPC      C32           -53.7859799711       30.8207096088       12.1335771313  MEMB      123             0.0000000000
     14531       123  POPC      H2X           -54.8436424485       30.5026016479       12.2539039430  MEMB      123             0.0000000000
     14532       123  POPC      H2Y           -53.2653000628       29.8688912065       11.8942977503  MEMB      123             0.0000000000
     14533       123  POPC      C23           -50.6583583497       35.7487893167       13.3496575751  MEMB      123             0.0000000000
     14534       123  POPC      H3R           -49.6725236186       35.7095946931       12.8388598019  MEMB      123             0.0000000000
     14535       123  POPC      H3S           -51.0545668209       36.7863519528       13.3780091939  MEMB      123             0.0000000000
     14536       123  POPC      C24           -51.5392315837       34.9549962771       12.3508451726  MEMB      123             0.0000000000
     14537       123  POPC      H4R           -52.5956849927       35.0447582102       12.6827637583  MEMB      123             0.0000000000
     14538       123  POPC      H4S           -51.2244722336       33.8897263133       12.3720017850  MEMB      123             0.0000000000
     14539       123  POPC      C25           -51.5275474659       35.4668381884       10.9046271207  MEMB      123             0.0000000000
     14540       123  POPC      H5R           -52.0002246761       36.4719668517       10.9294040348  MEMB      123             0.0000000000
     14541       123  POPC      H5S           -52.2623756369       34.8959365683       10.2976510371  MEMB      123             0.0000000000
     14542       123  POPC      C26           -50.2289662175       35.4513076537       10.1203058771  MEMB      123             0.0000000000
     14543       123  POPC      H6R           -49.9147930715       34.4057723084        9.9142183148  MEMB      123             0.0000000000
     14544       123  POPC      H6S           -49.4065268096       36.0526866557       10.5633153719  MEMB      123             0.0000000000
     14545       123  POPC      C27           -50.3743510750       36.1278854165        8.7316043177  MEMB      123             0.0000000000
     14546       123  POPC      H7R           -50.6531926912       37.1726985603        8.9864256928  MEMB      123             0.0000000000
     14547       123  POPC      H7S           -51.2011441370       35.6327784659        8.1787904783  MEMB      123             0.0000000000
     14548       123  POPC      C28           -49.0965918354       36.0782998588        7.8121750112  MEMB      123             0.0000000000
     14549       123  POPC      H8R           -48.2088686987       36.2949262459        8.4441105469  MEMB      123             0.0000000000
     14550       123  POPC      H8S           -49.0233365477       36.8860497028        7.0529024694  MEMB      123             0.0000000000
     14551       123  POPC      C29           -48.9637142667       34.6674269463        7.2715169327  MEMB      123             0.0000000000
     14552       123  POPC      H91           -48.9370467448       33.9595505151        8.1130633453  MEMB      123             0.0000000000
     14553       123  POPC      C210          -48.9092232525       34.3279659701        5.9215895891  MEMB      123             0.0000000000
     14554       123  POPC      H101          -48.7691060701       33.2677687378        5.6640062548  MEMB      123             0.0000000000
     14555       123  POPC      C211          -48.9224886283       35.3727623253        4.8055545222  MEMB      123             0.0000000000
     14556       123  POPC      H11R          -48.6157452836       34.8119808350        3.8968444279  MEMB      123             0.0000000000
     14557       123  POPC      H11S          -48.3027680948       36.2697580875        5.0192492204  MEMB      123             0.0000000000
     14558       123  POPC      C212          -50.3485616508       35.8435749476        4.4366456039  MEMB      123             0.0000000000
     14559       123  POPC      H12R          -50.2014640802       36.3379254242        3.4526228722  MEMB      123             0.0000000000
     14560       123  POPC      H12S          -50.8259048425       36.5819657751        5.1157949799  MEMB      123             0.0000000000
     14561       123  POPC      C213          -51.4270610314       34.7549609045        4.2061481938  MEMB      123             0.0000000000
     14562       123  POPC      H13R          -51.9120563996       34.5521648133        5.1849095239  MEMB      123             0.0000000000
     14563       123  POPC      H13S          -50.9333881618       33.8401514623        3.8140614803  MEMB      123             0.0000000000
     14564       123  POPC      C214          -52.6501493923       35.0444187040        3.2429162424  MEMB      123             0.0000000000
     14565       123  POPC      H14R          -53.3721221353       35.7029159049        3.7715549005  MEMB      123             0.0000000000
     14566       123  POPC      H14S          -53.1356965513       34.0619090312        3.0605989433  MEMB      123             0.0000000000
     14567       123  POPC      C215          -52.4262495623       35.6599085130        1.8368367552  MEMB      123             0.0000000000
     14568       123  POPC      H15R          -51.3858811392       35.4003572969        1.5459964221  MEMB      123             0.0000000000
     14569       123  POPC      H15S          -52.6471333941       36.7471809023        1.8948887752  MEMB      123             0.0000000000
     14570       123  POPC      C216          -53.3294566083       34.9998287235        0.6927560448  MEMB      123             0.0000000000
     14571       123  POPC      H16R          -54.3735410385       34.8916461233        1.0567688513  MEMB      123             0.0000000000
     14572       123  POPC      H16S          -53.1196855273       33.9176202765        0.5544011803  MEMB      123             0.0000000000
     14573       123  POPC      C217          -53.2824969914       35.7616533309       -0.6780319189  MEMB      123             0.0000000000
     14574       123  POPC      H17R          -52.2336725332       35.6547405679       -1.0285433309  MEMB      123             0.0000000000
     14575       123  POPC      H17S          -53.5149682416       36.8163762750       -0.4175762493  MEMB      123             0.0000000000
     14576       123  POPC      C218          -54.2597064695       35.1404823177       -1.6909524504  MEMB      123             0.0000000000
     14577       123  POPC      H18R          -53.9733860236       34.1284380364       -2.0488737064  MEMB      123             0.0000000000
     14578       123  POPC      H18S          -54.3591944633       35.8100735392       -2.5718999152  MEMB      123             0.0000000000
     14579       123  POPC      H18T          -55.2461820585       35.1537392236       -1.1800600863  MEMB      123             0.0000000000
     14580       123  POPC      C33           -53.4785854228       31.8892450599       11.0700826406  MEMB      123             0.0000000000
     14581       123  POPC      H3X           -52.5627039630       32.4677267332       11.3167426053  MEMB      123             0.0000000000
     14582       123  POPC      H3Y           -54.3293500428       32.6029032181       11.1049030891  MEMB      123             0.0000000000
     14583       123  POPC      C34           -53.4971852613       31.3603004370        9.6727764894  MEMB      123             0.0000000000
     14584       123  POPC      H4X           -53.7817461308       32.2051254806        9.0097408307  MEMB      123             0.0000000000
     14585       123  POPC      H4Y           -54.2538081281       30.5557193302        9.5523915237  MEMB      123             0.0000000000
     14586       123  POPC      C35           -52.1539343735       30.6875129449        9.2747367388  MEMB      123             0.0000000000
     14587       123  POPC      H5X           -51.8552918396       29.9091155538       10.0090609371  MEMB      123             0.0000000000
     14588       123  POPC      H5Y           -51.4126370362       31.5149559756        9.2864480804  MEMB      123             0.0000000000
     14589       123  POPC      C36           -52.1209141009       30.0046716718        7.9025914659  MEMB      123             0.0000000000
     14590       123  POPC      H6X           -52.9457472734       29.2715922007        7.7738832673  MEMB      123             0.0000000000
     14591       123  POPC      H6Y           -51.2622058542       29.3055505605        7.8121990914  MEMB      123             0.0000000000
     14592       123  POPC      C37           -52.2582359314       31.0788157069        6.7526475697  MEMB      123             0.0000000000
     14593       123  POPC      H7X           -51.3955776588       31.7726716195        6.8459509442  MEMB      123             0.0000000000
     14594       123  POPC      H7Y           -53.2143861132       31.6277111628        6.8898026197  MEMB      123             0.0000000000
     14595       123  POPC      C38           -52.2291244835       30.5485630480        5.3124805039  MEMB      123             0.0000000000
     14596       123  POPC      H8X           -52.0210686765       31.4269377281        4.6647991259  MEMB      123             0.0000000000
     14597       123  POPC      H8Y           -53.2419964797       30.1702526234        5.0569571340  MEMB      123             0.0000000000
     14598       123  POPC      C39           -51.1688418018       29.4826529860        4.9876671649  MEMB      123             0.0000000000
     14599       123  POPC      H9X           -51.4756733116       29.0682117116        4.0035863917  MEMB      123             0.0000000000
     14600       123  POPC      H9Y           -51.2306278401       28.6242806657        5.6903046632  MEMB      123             0.0000000000
     14601       123  POPC      C310          -49.6749040518       29.9714796883        4.8604031755  MEMB      123             0.0000000000
     14602       123  POPC      H10X          -49.0937098993       29.0793858993        4.5430653263  MEMB      123             0.0000000000
     14603       123  POPC      H10Y          -49.2401422621       30.2407365146        5.8467107485  MEMB      123             0.0000000000
     14604       123  POPC      C311          -49.4451178368       31.1505735660        3.8333984839  MEMB      123             0.0000000000
     14605       123  POPC      H11X          -48.3508039894       31.3424015444        3.8339386881  MEMB      123             0.0000000000
     14606       123  POPC      H11Y          -49.7764451214       32.1347716299        4.2282366602  MEMB      123             0.0000000000
     14607       123  POPC      C312          -49.9387576006       30.8537391706        2.3715653479  MEMB      123             0.0000000000
     14608       123  POPC      H12X          -50.9931417450       31.2014535408        2.3304586683  MEMB      123             0.0000000000
     14609       123  POPC      H12Y          -49.8419660684       29.7659883099        2.1672369325  MEMB      123             0.0000000000
     14610       123  POPC      C313          -49.0578298445       31.5570894937        1.2434865066  MEMB      123             0.0000000000
     14611       123  POPC      H13X          -49.5128101595       31.2554648607        0.2758428273  MEMB      123             0.0000000000
     14612       123  POPC      H13Y          -48.0990692055       30.9969290700        1.2798096418  MEMB      123             0.0000000000
     14613       123  POPC      C314          -48.8821155443       33.0402635806        1.4186134792  MEMB      123             0.0000000000
     14614       123  POPC      H14X          -48.9730941799       33.5826844378        2.3839239388  MEMB      123             0.0000000000
     14615       123  POPC      H14Y          -49.6549876311       33.4016081118        0.7069815003  MEMB      123             0.0000000000
     14616       123  POPC      C315          -47.6332772355       33.5755429485        0.8072264123  MEMB      123             0.0000000000
     14617       123  POPC      H15X          -46.7624382311       33.2413576801        1.4107823391  MEMB      123             0.0000000000
     14618       123  POPC      H15Y          -47.5434065931       34.6781903583        0.9092680913  MEMB      123             0.0000000000
     14619       123  POPC      C316          -47.5661545932       33.1902298641       -0.6813206704  MEMB      123             0.0000000000
     14620       123  POPC      H16X          -46.6346525838       33.6885778990       -1.0252311836  MEMB      123             0.0000000000
     14621       123  POPC      H16Y          -48.3845455637       33.5867872441       -1.3195208771  MEMB      123             0.0000000000
     14622       123  POPC      H16Z          -47.5230929724       32.1050229787       -0.9153995492  MEMB      123             0.0000000000
     14623       124  POPC      N             -40.2667297756       45.3009411504       18.1317433078  MEMB      124             0.0000000000
     14624       124  POPC      C12           -38.8895462678       44.7831225072       17.6581592597  MEMB      124             0.0000000000
     14625       124  POPC      H12A          -38.3493935346       45.6643315063       17.3449408533  MEMB      124             0.0000000000
     14626       124  POPC      H12B          -39.1388418614       44.0837836025       16.8738273538  MEMB      124             0.0000000000
     14627       124  POPC      C13           -40.1985336605       46.2234135872       19.3551238435  MEMB      124             0.0000000000
     14628       124  POPC      H13A          -41.2353919504       46.2605107888       19.6550376645  MEMB      124             0.0000000000
     14629       124  POPC      H13B          -39.7136017312       45.8087561747       20.2265023053  MEMB      124             0.0000000000
     14630       124  POPC      H13C          -39.8146066399       47.1749598568       19.0181375568  MEMB      124             0.0000000000
     14631       124  POPC      C14           -40.7923545518       46.1244418322       16.9859603016  MEMB      124             0.0000000000
     14632       124  POPC      H14A          -40.9493290935       45.5660864761       16.0749178093  MEMB      124             0.0000000000
     14633       124  POPC      H14B          -41.7096964359       46.6002484359       17.2997941008  MEMB      124             0.0000000000
     14634       124  POPC      H14C          -40.0854859440       46.9019116004       16.7364053973  MEMB      124             0.0000000000
     14635       124  POPC      C15           -41.1341044782       44.1955162794       18.5239226892  MEMB      124             0.0000000000
     14636       124  POPC      H15A          -40.8743989906       43.8363493836       19.5087841775  MEMB      124             0.0000000000
     14637       124  POPC      H15B          -40.8959394837       43.3612042026       17.8808046569  MEMB      124             0.0000000000
     14638       124  POPC      H15C          -42.1748864342       44.4649490288       18.6267778162  MEMB      124             0.0000000000
     14639       124  POPC      C11           -38.0376929211       43.9821766769       18.5752707984  MEMB      124             0.0000000000
     14640       124  POPC      H11A          -37.1926801868       43.4854398039       18.0522728224  MEMB      124             0.0000000000
     14641       124  POPC      H11B          -38.6897587912       43.1350724483       18.8778355088  MEMB      124             0.0000000000
     14642       124  POPC      P             -36.1403957621       45.0105688412       20.0508877839  MEMB      124             0.0000000000
     14643       124  POPC      O13           -35.4982845966       43.7811802760       20.5672697678  MEMB      124             0.0000000000
     14644       124  POPC      O14           -36.1200802173       46.2796146364       20.8567384692  MEMB      124             0.0000000000
     14645       124  POPC      O12           -37.6662343603       44.7003403093       19.7619063057  MEMB      124             0.0000000000
     14646       124  POPC      O11           -35.7010915152       45.3314025037       18.5330175150  MEMB      124             0.0000000000
     14647       124  POPC      C1            -34.5962119994       46.2381595650       18.1895967721  MEMB      124             0.0000000000
     14648       124  POPC      HA            -33.8167448786       45.6810438381       17.6271251509  MEMB      124             0.0000000000
     14649       124  POPC      HB            -34.0219536284       46.6178583694       19.0615929499  MEMB      124             0.0000000000
     14650       124  POPC      C2            -35.0559138257       47.5373993768       17.3917727636  MEMB      124             0.0000000000
     14651       124  POPC      HS            -34.3640093237       48.3391387591       17.7276344133  MEMB      124             0.0000000000
     14652       124  POPC      O21           -36.3892970418       47.8636699245       17.8417350600  MEMB      124             0.0000000000
     14653       124  POPC      C21           -36.6679144454       49.1666064012       17.6859416491  MEMB      124             0.0000000000
     14654       124  POPC      O22           -35.8638714368       50.0839196386       17.5481355259  MEMB      124             0.0000000000
     14655       124  POPC      C22           -38.1749723340       49.4152833442       17.8365626505  MEMB      124             0.0000000000
     14656       124  POPC      H2R           -38.3832023293       49.8869451096       18.8206848321  MEMB      124             0.0000000000
     14657       124  POPC      H2S           -38.7585607726       48.4809276990       17.6926003317  MEMB      124             0.0000000000
     14658       124  POPC      C3            -35.0615644716       47.3826203082       15.8802861078  MEMB      124             0.0000000000
     14659       124  POPC      HX            -34.0228440773       47.4763731487       15.4974136092  MEMB      124             0.0000000000
     14660       124  POPC      HY            -35.5869857384       48.2522758224       15.4308945493  MEMB      124             0.0000000000
     14661       124  POPC      O31           -35.7843317629       46.1848083492       15.4838722464  MEMB      124             0.0000000000
     14662       124  POPC      C31           -35.1550853451       45.1778545901       15.0944612915  MEMB      124             0.0000000000
     14663       124  POPC      O32           -34.0435747779       45.1027855080       14.6240239121  MEMB      124             0.0000000000
     14664       124  POPC      C32           -35.9631356897       43.9064350515       15.4346754429  MEMB      124             0.0000000000
     14665       124  POPC      H2X           -37.0495647620       44.1384315056       15.4216170979  MEMB      124             0.0000000000
     14666       124  POPC      H2Y           -35.7732682860       43.4400734569       16.4250179004  MEMB      124             0.0000000000
     14667       124  POPC      C23           -38.6599659974       50.3873966413       16.7050295481  MEMB      124             0.0000000000
     14668       124  POPC      H3R           -37.9305152523       51.2206332216       16.7941352165  MEMB      124             0.0000000000
     14669       124  POPC      H3S           -39.7084682290       50.7198545394       16.8613502001  MEMB      124             0.0000000000
     14670       124  POPC      C24           -38.6971741805       49.9637863877       15.2141363919  MEMB      124             0.0000000000
     14671       124  POPC      H4R           -37.8667571905       50.4514725239       14.6601592876  MEMB      124             0.0000000000
     14672       124  POPC      H4S           -39.6025584634       50.5078376819       14.8697406318  MEMB      124             0.0000000000
     14673       124  POPC      C25           -38.8285199356       48.4829322991       15.0031103250  MEMB      124             0.0000000000
     14674       124  POPC      H5R           -39.7366267693       48.1692638249       15.5610308426  MEMB      124             0.0000000000
     14675       124  POPC      H5S           -37.9967141604       47.9488182714       15.5102025940  MEMB      124             0.0000000000
     14676       124  POPC      C26           -38.9469405458       48.1290680400       13.4948928396  MEMB      124             0.0000000000
     14677       124  POPC      H6R           -37.9189374048       48.2280795941       13.0853477796  MEMB      124             0.0000000000
     14678       124  POPC      H6S           -39.4836306311       48.8986083761       12.8998363276  MEMB      124             0.0000000000
     14679       124  POPC      C27           -39.4335876035       46.7198178661       13.2143542320  MEMB      124             0.0000000000
     14680       124  POPC      H7R           -40.5435439767       46.6717618646       13.2114506429  MEMB      124             0.0000000000
     14681       124  POPC      H7S           -39.2137013122       46.0258449861       14.0536233755  MEMB      124             0.0000000000
     14682       124  POPC      C28           -39.0248260382       46.1488289304       11.8075040207  MEMB      124             0.0000000000
     14683       124  POPC      H8R           -39.4656873590       45.1516463048       11.5939879879  MEMB      124             0.0000000000
     14684       124  POPC      H8S           -37.9347178774       45.9865213022       11.9476515793  MEMB      124             0.0000000000
     14685       124  POPC      C29           -39.4133225944       47.0902689393       10.6835655492  MEMB      124             0.0000000000
     14686       124  POPC      H91           -40.4961277333       47.1824096919       10.5131458012  MEMB      124             0.0000000000
     14687       124  POPC      C210          -38.6613271313       47.9263905343        9.9204067767  MEMB      124             0.0000000000
     14688       124  POPC      H101          -39.1458480419       48.5341130855        9.1420026388  MEMB      124             0.0000000000
     14689       124  POPC      C211          -37.1263302033       48.1131295141       10.0191068037  MEMB      124             0.0000000000
     14690       124  POPC      H11R          -36.7346955736       47.5130311688       10.8681209773  MEMB      124             0.0000000000
     14691       124  POPC      H11S          -36.8177063665       49.1624312585       10.2141405258  MEMB      124             0.0000000000
     14692       124  POPC      C212          -36.5164939352       47.7471236650        8.6496596590  MEMB      124             0.0000000000
     14693       124  POPC      H12R          -37.0164507033       48.2966884333        7.8236191622  MEMB      124             0.0000000000
     14694       124  POPC      H12S          -36.6389905585       46.6617405326        8.4465365190  MEMB      124             0.0000000000
     14695       124  POPC      C213          -35.0696367774       47.9978890461        8.3716814218  MEMB      124             0.0000000000
     14696       124  POPC      H13R          -34.4126426134       47.6215606185        9.1847352613  MEMB      124             0.0000000000
     14697       124  POPC      H13S          -35.0181843095       49.1072900668        8.4017333323  MEMB      124             0.0000000000
     14698       124  POPC      C214          -34.5165157550       47.2676368575        7.1883390416  MEMB      124             0.0000000000
     14699       124  POPC      H14R          -34.9519889890       46.2747476388        7.4309396982  MEMB      124             0.0000000000
     14700       124  POPC      H14S          -33.4108433349       47.2067630647        7.0983183357  MEMB      124             0.0000000000
     14701       124  POPC      C215          -35.1154921215       47.5489794805        5.7549874292  MEMB      124             0.0000000000
     14702       124  POPC      H15R          -34.6670771322       48.5053553355        5.4106176761  MEMB      124             0.0000000000
     14703       124  POPC      H15S          -36.1715956950       47.7714645581        6.0185520530  MEMB      124             0.0000000000
     14704       124  POPC      C216          -35.0697712067       46.4276152215        4.7361238134  MEMB      124             0.0000000000
     14705       124  POPC      H16R          -35.0295722046       45.4211323957        5.2048416922  MEMB      124             0.0000000000
     14706       124  POPC      H16S          -34.0715053640       46.3821749943        4.2506119958  MEMB      124             0.0000000000
     14707       124  POPC      C217          -36.2817804317       46.4547956245        3.6854944941  MEMB      124             0.0000000000
     14708       124  POPC      H17R          -36.4597104059       47.4774692430        3.2895147645  MEMB      124             0.0000000000
     14709       124  POPC      H17S          -37.1906979556       46.3400334800        4.3140009357  MEMB      124             0.0000000000
     14710       124  POPC      C218          -36.0956508456       45.3909606525        2.6224054183  MEMB      124             0.0000000000
     14711       124  POPC      H18R          -36.1832123259       44.3614596488        3.0307948429  MEMB      124             0.0000000000
     14712       124  POPC      H18S          -35.0703143432       45.4958277436        2.2076661253  MEMB      124             0.0000000000
     14713       124  POPC      H18T          -36.8698420698       45.4590286183        1.8284803678  MEMB      124             0.0000000000
     14714       124  POPC      C33           -35.7406469304       42.6432688714       14.5176971886  MEMB      124             0.0000000000
     14715       124  POPC      H3X           -36.0213207265       41.6879231941       15.0105031339  MEMB      124             0.0000000000
     14716       124  POPC      H3Y           -34.6570437455       42.5288499561       14.3008261480  MEMB      124             0.0000000000
     14717       124  POPC      C34           -36.4904112297       42.7765571299       13.1451900997  MEMB      124             0.0000000000
     14718       124  POPC      H4X           -36.6339152416       43.7702559441       12.6694908896  MEMB      124             0.0000000000
     14719       124  POPC      H4Y           -37.4999937678       42.3956508694       13.4097177864  MEMB      124             0.0000000000
     14720       124  POPC      C35           -35.8988295939       41.8464875329       12.1429082932  MEMB      124             0.0000000000
     14721       124  POPC      H5X           -36.6291482295       41.5988304520       11.3431448238  MEMB      124             0.0000000000
     14722       124  POPC      H5Y           -35.6237738880       40.8850355692       12.6269280995  MEMB      124             0.0000000000
     14723       124  POPC      C36           -34.5890618007       42.4157225702       11.4468589692  MEMB      124             0.0000000000
     14724       124  POPC      H6X           -33.7704296270       41.9774151687       12.0568176137  MEMB      124             0.0000000000
     14725       124  POPC      H6Y           -34.4722813095       43.5166037981       11.5403676085  MEMB      124             0.0000000000
     14726       124  POPC      C37           -34.4607256876       41.9887696380        9.9774732940  MEMB      124             0.0000000000
     14727       124  POPC      H7X           -34.8373905783       40.9436269581        9.9884817423  MEMB      124             0.0000000000
     14728       124  POPC      H7Y           -33.3755405432       41.8853384719        9.7630053324  MEMB      124             0.0000000000
     14729       124  POPC      C38           -35.1787014997       42.8322146363        8.9311713198  MEMB      124             0.0000000000
     14730       124  POPC      H8X           -34.9373532326       42.4226923018        7.9269980333  MEMB      124             0.0000000000
     14731       124  POPC      H8Y           -34.6996964228       43.8343485089        8.9557276660  MEMB      124             0.0000000000
     14732       124  POPC      C39           -36.6927354146       42.9030037936        9.1345967006  MEMB      124             0.0000000000
     14733       124  POPC      H9X           -36.9035708078       43.3901916732       10.1105666229  MEMB      124             0.0000000000
     14734       124  POPC      H9Y           -37.0873064710       41.8652820788        9.1766536352  MEMB      124             0.0000000000
     14735       124  POPC      C310          -37.4932364450       43.7028127512        8.0384978448  MEMB      124             0.0000000000
     14736       124  POPC      H10X          -37.0764721642       44.7311132625        8.0953004436  MEMB      124             0.0000000000
     14737       124  POPC      H10Y          -38.5550379776       43.7612618296        8.3601839387  MEMB      124             0.0000000000
     14738       124  POPC      C311          -37.3188838078       43.0973794383        6.6464745005  MEMB      124             0.0000000000
     14739       124  POPC      H11X          -37.1187874381       42.0178774178        6.8166427452  MEMB      124             0.0000000000
     14740       124  POPC      H11Y          -36.4272323465       43.5722520302        6.1841169869  MEMB      124             0.0000000000
     14741       124  POPC      C312          -38.4601178543       43.2928183034        5.6790179198  MEMB      124             0.0000000000
     14742       124  POPC      H12X          -39.2962627942       42.6249362505        5.9775422185  MEMB      124             0.0000000000
     14743       124  POPC      H12Y          -38.0322210365       43.0307122237        4.6877934160  MEMB      124             0.0000000000
     14744       124  POPC      C313          -39.1481890011       44.6859776315        5.7381930528  MEMB      124             0.0000000000
     14745       124  POPC      H13X          -38.4791074283       45.5684215944        5.6490664254  MEMB      124             0.0000000000
     14746       124  POPC      H13Y          -39.4905968037       44.7776006205        6.7911334739  MEMB      124             0.0000000000
     14747       124  POPC      C314          -40.4467742242       44.7956525285        4.8476487523  MEMB      124             0.0000000000
     14748       124  POPC      H14X          -41.0651047624       45.6593468333        5.1732559644  MEMB      124             0.0000000000
     14749       124  POPC      H14Y          -41.0239085893       43.8662586444        5.0412043697  MEMB      124             0.0000000000
     14750       124  POPC      C315          -40.0971224250       44.9178821977        3.3166218296  MEMB      124             0.0000000000
     14751       124  POPC      H15X          -41.0050160521       44.6591804878        2.7308548881  MEMB      124             0.0000000000
     14752       124  POPC      H15Y          -39.1600776736       44.3856085396        3.0465239768  MEMB      124             0.0000000000
     14753       124  POPC      C316          -39.9003954553       46.4098110691        3.0208490328  MEMB      124             0.0000000000
     14754       124  POPC      H16X          -39.7979624588       46.5306930521        1.9212055850  MEMB      124             0.0000000000
     14755       124  POPC      H16Y          -39.0918215312       46.9481916304        3.5599924503  MEMB      124             0.0000000000
     14756       124  POPC      H16Z          -40.8899752421       46.9069431735        3.1098022764  MEMB      124             0.0000000000
     14757       125  POPC      N              45.3566727728      -40.5159514368       21.1528901103  MEMB      125             0.0000000000
     14758       125  POPC      C12            44.7575499253      -39.9636082148       19.8524954135  MEMB      125             0.0000000000
     14759       125  POPC      H12A           44.7868675866      -38.8843328780       19.8790519484  MEMB      125             0.0000000000
     14760       125  POPC      H12B           43.6997181238      -40.1651265572       19.9348497523  MEMB      125             0.0000000000
     14761       125  POPC      C13            44.4105403938      -40.1797387631       22.3013992047  MEMB      125             0.0000000000
     14762       125  POPC      H13A           43.6255004317      -40.9163873024       22.3877781515  MEMB      125             0.0000000000
     14763       125  POPC      H13B           44.9515849926      -40.0863928719       23.2314302429  MEMB      125             0.0000000000
     14764       125  POPC      H13C           44.0386476332      -39.1980171855       22.0477884175  MEMB      125             0.0000000000
     14765       125  POPC      C14            45.6768191244      -42.0230085737       21.0302556647  MEMB      125             0.0000000000
     14766       125  POPC      H14A           44.7416338370      -42.5488726407       20.9065811770  MEMB      125             0.0000000000
     14767       125  POPC      H14B           46.2035967807      -42.2704321642       20.1204826130  MEMB      125             0.0000000000
     14768       125  POPC      H14C           46.1638955269      -42.4546328351       21.8921472481  MEMB      125             0.0000000000
     14769       125  POPC      C15            46.6267727830      -39.8693335811       21.4219893855  MEMB      125             0.0000000000
     14770       125  POPC      H15A           47.3117976724      -40.0349757253       20.6036352805  MEMB      125             0.0000000000
     14771       125  POPC      H15B           47.0957018295      -40.3238247475       22.2821891770  MEMB      125             0.0000000000
     14772       125  POPC      H15C           46.5529108184      -38.8053045961       21.5916562601  MEMB      125             0.0000000000
     14773       125  POPC      C11            45.3312457058      -40.4455834918       18.5032332149  MEMB      125             0.0000000000
     14774       125  POPC      H11A           44.6205472847      -39.9740633366       17.7912658644  MEMB      125             0.0000000000
     14775       125  POPC      H11B           45.1989080826      -41.5388469079       18.3563221392  MEMB      125             0.0000000000
     14776       125  POPC      P              47.2901956631      -39.9190463282       16.8959126391  MEMB      125             0.0000000000
     14777       125  POPC      O13            47.3285760251      -41.2696122096       16.3426301774  MEMB      125             0.0000000000
     14778       125  POPC      O14            48.6414521874      -39.2510780621       17.0067662780  MEMB      125             0.0000000000
     14779       125  POPC      O12            46.6676683576      -40.0370602932       18.3351939550  MEMB      125             0.0000000000
     14780       125  POPC      O11            46.2437161339      -39.0203434114       16.1572339532  MEMB      125             0.0000000000
     14781       125  POPC      C1             46.1006203712      -37.6260712932       16.5767546450  MEMB      125             0.0000000000
     14782       125  POPC      HA             46.9997710275      -37.1270984417       16.9973200056  MEMB      125             0.0000000000
     14783       125  POPC      HB             45.2550595654      -37.3841338300       17.2555875063  MEMB      125             0.0000000000
     14784       125  POPC      C2             45.6226603123      -36.7707921678       15.3118048755  MEMB      125             0.0000000000
     14785       125  POPC      HS             45.0482205506      -35.8703929969       15.6177809213  MEMB      125             0.0000000000
     14786       125  POPC      O21            44.7559113229      -37.6254880023       14.5466458550  MEMB      125             0.0000000000
     14787       125  POPC      C21            43.4971597830      -38.0565985536       14.9574171109  MEMB      125             0.0000000000
     14788       125  POPC      O22            42.9888088238      -37.6512931903       15.9956573789  MEMB      125             0.0000000000
     14789       125  POPC      C22            42.8209132801      -39.0787976016       14.0396213025  MEMB      125             0.0000000000
     14790       125  POPC      H2R            43.6619231198      -39.6571763812       13.6008717953  MEMB      125             0.0000000000
     14791       125  POPC      H2S            42.2247577343      -38.5256478750       13.2826902546  MEMB      125             0.0000000000
     14792       125  POPC      C3             46.8045853795      -36.3502435476       14.3694290746  MEMB      125             0.0000000000
     14793       125  POPC      HX             47.4203790600      -37.2708679675       14.2824244182  MEMB      125             0.0000000000
     14794       125  POPC      HY             47.4110221372      -35.5865607703       14.9017299407  MEMB      125             0.0000000000
     14795       125  POPC      O31            46.4242618096      -35.9495191043       13.0368468990  MEMB      125             0.0000000000
     14796       125  POPC      C31            46.1298029527      -34.6825619297       12.8773379812  MEMB      125             0.0000000000
     14797       125  POPC      O32            45.9667284787      -33.8746729029       13.7636261263  MEMB      125             0.0000000000
     14798       125  POPC      C32            46.1600705967      -34.4113487776       11.3563083528  MEMB      125             0.0000000000
     14799       125  POPC      H2X            46.7628703022      -35.2364339313       10.9202029005  MEMB      125             0.0000000000
     14800       125  POPC      H2Y            46.7225850494      -33.4778913938       11.1405406537  MEMB      125             0.0000000000
     14801       125  POPC      C23            41.9287416942      -40.1435886781       14.7684260544  MEMB      125             0.0000000000
     14802       125  POPC      H3R            41.2293577273      -39.6122104598       15.4487353351  MEMB      125             0.0000000000
     14803       125  POPC      H3S            42.6049837054      -40.8416702969       15.3066637381  MEMB      125             0.0000000000
     14804       125  POPC      C24            41.0499399862      -41.0248468586       13.8198776251  MEMB      125             0.0000000000
     14805       125  POPC      H4R            40.3262142468      -40.3011206853       13.3877171295  MEMB      125             0.0000000000
     14806       125  POPC      H4S            40.4975460710      -41.7718363434       14.4291301338  MEMB      125             0.0000000000
     14807       125  POPC      C25            41.7142916638      -41.7643362498       12.6858823595  MEMB      125             0.0000000000
     14808       125  POPC      H5R            41.9603866333      -41.0729560901       11.8517649824  MEMB      125             0.0000000000
     14809       125  POPC      H5S            40.9832311496      -42.4438863813       12.1979436947  MEMB      125             0.0000000000
     14810       125  POPC      C26            42.9687022771      -42.5742859987       13.0846677566  MEMB      125             0.0000000000
     14811       125  POPC      H6R            42.6013692749      -43.2460038111       13.8897651996  MEMB      125             0.0000000000
     14812       125  POPC      H6S            43.7338736159      -41.9872593940       13.6362415793  MEMB      125             0.0000000000
     14813       125  POPC      C27            43.6975651556      -43.4502903681       11.9991203285  MEMB      125             0.0000000000
     14814       125  POPC      H7R            42.9937392734      -44.2405954917       11.6609368140  MEMB      125             0.0000000000
     14815       125  POPC      H7S            44.4806831524      -43.9849802019       12.5780453976  MEMB      125             0.0000000000
     14816       125  POPC      C28            44.3070196600      -42.8637491725       10.7110660847  MEMB      125             0.0000000000
     14817       125  POPC      H8R            43.4976009192      -42.3920119529       10.1138835636  MEMB      125             0.0000000000
     14818       125  POPC      H8S            44.4790765695      -43.8034429115       10.1438863415  MEMB      125             0.0000000000
     14819       125  POPC      C29            45.5135411130      -42.0186085746       10.8233530169  MEMB      125             0.0000000000
     14820       125  POPC      H91            46.4184489259      -42.5715916616       11.1155024657  MEMB      125             0.0000000000
     14821       125  POPC      C210           45.7385072234      -40.6577930555       10.7527468688  MEMB      125             0.0000000000
     14822       125  POPC      H101           46.7776551060      -40.3033748333       10.8202701271  MEMB      125             0.0000000000
     14823       125  POPC      C211           44.6783329332      -39.5459333680       10.4567539499  MEMB      125             0.0000000000
     14824       125  POPC      H11R           44.8545154463      -38.7327010924       11.1929157075  MEMB      125             0.0000000000
     14825       125  POPC      H11S           43.6467661671      -39.9191520209       10.6325351369  MEMB      125             0.0000000000
     14826       125  POPC      C212           44.6695992982      -38.8920207982        9.1043856567  MEMB      125             0.0000000000
     14827       125  POPC      H12R           45.7410720784      -38.7213851768        8.8653237182  MEMB      125             0.0000000000
     14828       125  POPC      H12S           44.1088110465      -37.9409791204        8.9804626403  MEMB      125             0.0000000000
     14829       125  POPC      C213           44.3209361455      -39.8243038931        7.9264569367  MEMB      125             0.0000000000
     14830       125  POPC      H13R           43.3948069560      -40.4260677227        8.0468151625  MEMB      125             0.0000000000
     14831       125  POPC      H13S           44.9397907223      -40.7296318776        7.7483525070  MEMB      125             0.0000000000
     14832       125  POPC      C214           44.1014514865      -39.1002191739        6.6562088109  MEMB      125             0.0000000000
     14833       125  POPC      H14R           45.0152804260      -38.6293141688        6.2349173158  MEMB      125             0.0000000000
     14834       125  POPC      H14S           43.2915238858      -38.3714648886        6.8735922293  MEMB      125             0.0000000000
     14835       125  POPC      C215           43.8381043076      -40.2792340371        5.6200324636  MEMB      125             0.0000000000
     14836       125  POPC      H15R           43.1098423143      -41.0376809994        5.9787995605  MEMB      125             0.0000000000
     14837       125  POPC      H15S           44.8110888577      -40.7668652224        5.3967886365  MEMB      125             0.0000000000
     14838       125  POPC      C216           43.1747785549      -39.7497904529        4.3602361639  MEMB      125             0.0000000000
     14839       125  POPC      H16R           42.0669706327      -39.6676751171        4.3786691998  MEMB      125             0.0000000000
     14840       125  POPC      H16S           43.4711757726      -40.5832854820        3.6881081362  MEMB      125             0.0000000000
     14841       125  POPC      C217           43.7101507997      -38.3601080150        3.8479038114  MEMB      125             0.0000000000
     14842       125  POPC      H17R           44.8176808492      -38.4467135195        3.8338475318  MEMB      125             0.0000000000
     14843       125  POPC      H17S           43.4098774894      -37.4954846081        4.4776519906  MEMB      125             0.0000000000
     14844       125  POPC      C218           43.2202345624      -37.9509082336        2.4096766789  MEMB      125             0.0000000000
     14845       125  POPC      H18R           42.1135490427      -37.9196546134        2.3169861012  MEMB      125             0.0000000000
     14846       125  POPC      H18S           43.4937775623      -38.7458847374        1.6833800558  MEMB      125             0.0000000000
     14847       125  POPC      H18T           43.6618826149      -37.0187900662        1.9968532143  MEMB      125             0.0000000000
     14848       125  POPC      C33            44.8804365850      -34.2948617235       10.6481428928  MEMB      125             0.0000000000
     14849       125  POPC      H3X            44.4010423799      -33.3434350871       10.9632448338  MEMB      125             0.0000000000
     14850       125  POPC      H3Y            44.2609393834      -35.1614445627       10.9637038416  MEMB      125             0.0000000000
     14851       125  POPC      C34            45.0012167890      -34.5536867288        9.1447609134  MEMB      125             0.0000000000
     14852       125  POPC      H4X            45.2212594294      -35.6416935153        9.0984591075  MEMB      125             0.0000000000
     14853       125  POPC      H4Y            45.8830782757      -33.9923436595        8.7685490443  MEMB      125             0.0000000000
     14854       125  POPC      C35            43.8240591169      -34.3719302830        8.2351515105  MEMB      125             0.0000000000
     14855       125  POPC      H5X            43.5993308884      -33.2842501347        8.2074056971  MEMB      125             0.0000000000
     14856       125  POPC      H5Y            43.0190578477      -35.0368412693        8.6148717226  MEMB      125             0.0000000000
     14857       125  POPC      C36            44.0780815808      -34.7447326153        6.8197358005  MEMB      125             0.0000000000
     14858       125  POPC      H6X            43.1311460836      -34.6317534108        6.2497618765  MEMB      125             0.0000000000
     14859       125  POPC      H6Y            44.3026349185      -35.8302450493        6.8943005717  MEMB      125             0.0000000000
     14860       125  POPC      C37            45.2827201180      -34.0164603275        6.1847897125  MEMB      125             0.0000000000
     14861       125  POPC      H7X            46.2298801396      -33.8743886224        6.7478384690  MEMB      125             0.0000000000
     14862       125  POPC      H7Y            44.9950517802      -32.9580139489        6.0079885132  MEMB      125             0.0000000000
     14863       125  POPC      C38            45.7963383649      -34.6106053749        4.8764020517  MEMB      125             0.0000000000
     14864       125  POPC      H8X            46.4507223671      -33.8229760603        4.4454227439  MEMB      125             0.0000000000
     14865       125  POPC      H8Y            44.9606419181      -34.8301985671        4.1780389953  MEMB      125             0.0000000000
     14866       125  POPC      C39            46.7169828101      -35.7741471285        5.1457804592  MEMB      125             0.0000000000
     14867       125  POPC      H9X            46.0451590616      -36.6304927880        5.3685943761  MEMB      125             0.0000000000
     14868       125  POPC      H9Y            47.4120089098      -35.5170768379        5.9735330926  MEMB      125             0.0000000000
     14869       125  POPC      C310           47.6322782751      -36.1407364943        3.9661355661  MEMB      125             0.0000000000
     14870       125  POPC      H10X           48.1348205578      -35.1792474553        3.7267387921  MEMB      125             0.0000000000
     14871       125  POPC      H10Y           47.1284602756      -36.3598168677        3.0004804088  MEMB      125             0.0000000000
     14872       125  POPC      C311           48.6913490983      -37.2050626267        4.2764760379  MEMB      125             0.0000000000
     14873       125  POPC      H11X           49.0509976616      -36.9567461034        5.2979031129  MEMB      125             0.0000000000
     14874       125  POPC      H11Y           49.5263741985      -37.2195232645        3.5437789824  MEMB      125             0.0000000000
     14875       125  POPC      C312           48.1864887773      -38.6551216628        4.3221023380  MEMB      125             0.0000000000
     14876       125  POPC      H12X           47.3163157581      -38.5721643401        5.0078411367  MEMB      125             0.0000000000
     14877       125  POPC      H12Y           48.9372395284      -39.3614447662        4.7365918303  MEMB      125             0.0000000000
     14878       125  POPC      C313           47.7989828939      -39.1289257389        2.9721602900  MEMB      125             0.0000000000
     14879       125  POPC      H13X           48.7719639374      -39.1336200115        2.4358698588  MEMB      125             0.0000000000
     14880       125  POPC      H13Y           47.2588023618      -38.4452294573        2.2828952516  MEMB      125             0.0000000000
     14881       125  POPC      C314           47.4089154909      -40.6212117363        2.7991804269  MEMB      125             0.0000000000
     14882       125  POPC      H14X           46.3439131282      -40.6844658190        2.4891966033  MEMB      125             0.0000000000
     14883       125  POPC      H14Y           47.3775196611      -40.9782319192        3.8507843917  MEMB      125             0.0000000000
     14884       125  POPC      C315           48.3652457172      -41.4774919479        1.9890612761  MEMB      125             0.0000000000
     14885       125  POPC      H15X           49.3479420305      -41.7299560489        2.4417108794  MEMB      125             0.0000000000
     14886       125  POPC      H15Y           48.4853048607      -40.8078487545        1.1107188005  MEMB      125             0.0000000000
     14887       125  POPC      C316           47.6661968109      -42.7800304242        1.5860897614  MEMB      125             0.0000000000
     14888       125  POPC      H16X           46.7756742355      -42.5019862012        0.9827792750  MEMB      125             0.0000000000
     14889       125  POPC      H16Y           47.3713361821      -43.2915224478        2.5272341822  MEMB      125             0.0000000000
     14890       125  POPC      H16Z           48.4266126201      -43.3978004586        1.0622104170  MEMB      125             0.0000000000
     14891       126  POPC      N             -57.0316438123       28.1216083261       20.5952047976  MEMB      126             0.0000000000
     14892       126  POPC      C12           -58.0108410282       27.0295049628       20.0541520616  MEMB      126             0.0000000000
     14893       126  POPC      H12A          -59.0428934501       27.3474358463       20.0678613593  MEMB      126             0.0000000000
     14894       126  POPC      H12B          -58.1279971804       26.1683528923       20.6953162258  MEMB      126             0.0000000000
     14895       126  POPC      C13           -57.3415923873       28.5108457630       22.0232754780  MEMB      126             0.0000000000
     14896       126  POPC      H13A          -58.4113795272       28.6508417647       22.0718195046  MEMB      126             0.0000000000
     14897       126  POPC      H13B          -56.8605617233       27.7919285237       22.6699341086  MEMB      126             0.0000000000
     14898       126  POPC      H13C          -56.9054772630       29.4960602629       22.0978143424  MEMB      126             0.0000000000
     14899       126  POPC      C14           -55.5933256721       27.6723999265       20.6675492591  MEMB      126             0.0000000000
     14900       126  POPC      H14A          -55.2472271485       27.5168853208       19.6563959116  MEMB      126             0.0000000000
     14901       126  POPC      H14B          -54.9047106518       28.4042341058       21.0633119810  MEMB      126             0.0000000000
     14902       126  POPC      H14C          -55.6143065811       26.8197682189       21.3301041905  MEMB      126             0.0000000000
     14903       126  POPC      C15           -57.2214212332       29.3372352123       19.7279876198  MEMB      126             0.0000000000
     14904       126  POPC      H15A          -56.9248263067       29.2164888701       18.6965557514  MEMB      126             0.0000000000
     14905       126  POPC      H15B          -56.5076919598       30.0450682075       20.1229094153  MEMB      126             0.0000000000
     14906       126  POPC      H15C          -58.1597937140       29.8222248553       19.9530261802  MEMB      126             0.0000000000
     14907       126  POPC      C11           -57.7164425607       26.4549005429       18.6527200350  MEMB      126             0.0000000000
     14908       126  POPC      H11A          -57.5845266949       27.1950139436       17.8347033496  MEMB      126             0.0000000000
     14909       126  POPC      H11B          -58.6071378118       25.8565900948       18.3646097150  MEMB      126             0.0000000000
     14910       126  POPC      P             -55.4015322437       25.7828633724       17.4586802525  MEMB      126             0.0000000000
     14911       126  POPC      O13           -54.0779791497       25.2958993198       18.0259569038  MEMB      126             0.0000000000
     14912       126  POPC      O14           -55.4693274118       27.1046552269       16.7782990695  MEMB      126             0.0000000000
     14913       126  POPC      O12           -56.5448825320       25.6316703445       18.5487478639  MEMB      126             0.0000000000
     14914       126  POPC      O11           -55.9490623666       24.6414651991       16.4674266615  MEMB      126             0.0000000000
     14915       126  POPC      C1            -56.5013586766       23.4324122458       16.9108378279  MEMB      126             0.0000000000
     14916       126  POPC      HA            -57.5490222270       23.7110696764       17.1538857753  MEMB      126             0.0000000000
     14917       126  POPC      HB            -56.0237792354       23.1078975986       17.8600106624  MEMB      126             0.0000000000
     14918       126  POPC      C2            -56.3617862851       22.2346795840       15.8936346333  MEMB      126             0.0000000000
     14919       126  POPC      HS            -56.0984007571       21.3244196303       16.4736140500  MEMB      126             0.0000000000
     14920       126  POPC      O21           -55.2637146303       22.4682177972       14.9029180624  MEMB      126             0.0000000000
     14921       126  POPC      C21           -54.0405214950       22.4638719003       15.3683540791  MEMB      126             0.0000000000
     14922       126  POPC      O22           -53.6601383410       22.5046883189       16.5168992305  MEMB      126             0.0000000000
     14923       126  POPC      C22           -53.0530964607       22.6674107431       14.1946086397  MEMB      126             0.0000000000
     14924       126  POPC      H2R           -53.1983287902       21.8239736035       13.4862003193  MEMB      126             0.0000000000
     14925       126  POPC      H2S           -51.9723390104       22.6522763867       14.4516226157  MEMB      126             0.0000000000
     14926       126  POPC      C3            -57.5984171130       22.0241296981       15.0426879673  MEMB      126             0.0000000000
     14927       126  POPC      HX            -58.3610212578       21.5841703708       15.7203248877  MEMB      126             0.0000000000
     14928       126  POPC      HY            -57.2589268922       21.2534159189       14.3180725493  MEMB      126             0.0000000000
     14929       126  POPC      O31           -58.0386410167       23.2055408473       14.4406918340  MEMB      126             0.0000000000
     14930       126  POPC      C31           -57.7078128140       23.4460033068       13.1782495465  MEMB      126             0.0000000000
     14931       126  POPC      O32           -57.0749100848       22.7186428871       12.4452060223  MEMB      126             0.0000000000
     14932       126  POPC      C32           -58.1989748813       24.8083415276       12.8125432060  MEMB      126             0.0000000000
     14933       126  POPC      H2X           -59.1000132648       25.0663031541       13.4091220374  MEMB      126             0.0000000000
     14934       126  POPC      H2Y           -58.5073561307       24.8207721204       11.7452721878  MEMB      126             0.0000000000
     14935       126  POPC      C23           -53.4384782632       23.9729962331       13.4643716519  MEMB      126             0.0000000000
     14936       126  POPC      H3R           -53.1403901392       24.8727953812       14.0438764127  MEMB      126             0.0000000000
     14937       126  POPC      H3S           -54.5445413922       24.0356034954       13.3805531831  MEMB      126             0.0000000000
     14938       126  POPC      C24           -52.7610769514       23.9531771073       12.0657837166  MEMB      126             0.0000000000
     14939       126  POPC      H4R           -53.2576377399       23.1521883437       11.4774251496  MEMB      126             0.0000000000
     14940       126  POPC      H4S           -51.7067638976       23.6336349412       12.2094405171  MEMB      126             0.0000000000
     14941       126  POPC      C25           -52.9802091223       25.1846825228       11.2322279832  MEMB      126             0.0000000000
     14942       126  POPC      H5R           -52.8675267635       26.1697114391       11.7335680157  MEMB      126             0.0000000000
     14943       126  POPC      H5S           -53.9635659340       25.1462989627       10.7166147776  MEMB      126             0.0000000000
     14944       126  POPC      C26           -51.9637384968       25.2802598242       10.0792081304  MEMB      126             0.0000000000
     14945       126  POPC      H6R           -51.9564259168       24.3826238052        9.4245958467  MEMB      126             0.0000000000
     14946       126  POPC      H6S           -50.9551895695       25.5845544014       10.4321317162  MEMB      126             0.0000000000
     14947       126  POPC      C27           -52.1648583997       26.5572594649        9.4151898373  MEMB      126             0.0000000000
     14948       126  POPC      H7R           -52.2138070319       27.4321424614       10.0982017271  MEMB      126             0.0000000000
     14949       126  POPC      H7S           -53.1039191033       26.6460770778        8.8281653751  MEMB      126             0.0000000000
     14950       126  POPC      C28           -50.9693301985       26.9395474552        8.4341472508  MEMB      126             0.0000000000
     14951       126  POPC      H8R           -50.0259078720       26.8609089181        9.0156030414  MEMB      126             0.0000000000
     14952       126  POPC      H8S           -51.0802904382       28.0166207696        8.1853067002  MEMB      126             0.0000000000
     14953       126  POPC      C29           -50.8548168220       26.0356330866        7.2540533052  MEMB      126             0.0000000000
     14954       126  POPC      H91           -51.0569443576       24.9688266879        7.4303167529  MEMB      126             0.0000000000
     14955       126  POPC      C210          -50.6578176906       26.4477540844        5.9887011781  MEMB      126             0.0000000000
     14956       126  POPC      H101          -50.7889842389       25.6797454993        5.2121972222  MEMB      126             0.0000000000
     14957       126  POPC      C211          -50.4891331749       27.8155166325        5.3359012174  MEMB      126             0.0000000000
     14958       126  POPC      H11R          -49.7702081550       27.7408906973        4.4921599993  MEMB      126             0.0000000000
     14959       126  POPC      H11S          -50.1528917492       28.5504296135        6.0982441134  MEMB      126             0.0000000000
     14960       126  POPC      C212          -51.8027346476       28.4380506054        4.7343105766  MEMB      126             0.0000000000
     14961       126  POPC      H12R          -51.7170823379       29.5289153081        4.5419590267  MEMB      126             0.0000000000
     14962       126  POPC      H12S          -52.5736716696       28.3126370096        5.5244039670  MEMB      126             0.0000000000
     14963       126  POPC      C213          -52.3087275608       27.8968689122        3.3868088337  MEMB      126             0.0000000000
     14964       126  POPC      H13R          -52.7080846939       26.8703074463        3.5317431035  MEMB      126             0.0000000000
     14965       126  POPC      H13S          -51.4911212103       27.9713330173        2.6382788656  MEMB      126             0.0000000000
     14966       126  POPC      C214          -53.7178510399       28.5659441576        2.8665349916  MEMB      126             0.0000000000
     14967       126  POPC      H14R          -53.5369661796       29.5951825789        2.4893475586  MEMB      126             0.0000000000
     14968       126  POPC      H14S          -54.4508424027       28.7798127424        3.6735682955  MEMB      126             0.0000000000
     14969       126  POPC      C215          -54.6189718660       27.8365443170        1.8704473063  MEMB      126             0.0000000000
     14970       126  POPC      H15R          -55.5220012945       28.4226069267        1.5958755079  MEMB      126             0.0000000000
     14971       126  POPC      H15S          -54.8305304461       26.8569284839        2.3499428549  MEMB      126             0.0000000000
     14972       126  POPC      C216          -53.8236666994       27.8258658270        0.5405897833  MEMB      126             0.0000000000
     14973       126  POPC      H16R          -52.9518020688       27.1381462646        0.5754431986  MEMB      126             0.0000000000
     14974       126  POPC      H16S          -53.3630507188       28.8245787560        0.3833420252  MEMB      126             0.0000000000
     14975       126  POPC      C217          -54.5793783493       27.3950001523       -0.7168139367  MEMB      126             0.0000000000
     14976       126  POPC      H17R          -53.8795270366       27.3974470052       -1.5796723005  MEMB      126             0.0000000000
     14977       126  POPC      H17S          -55.4528359502       28.0503102951       -0.9216592610  MEMB      126             0.0000000000
     14978       126  POPC      C218          -55.0960267201       25.9104924198       -0.6546858640  MEMB      126             0.0000000000
     14979       126  POPC      H18R          -54.2418438783       25.2710324331       -0.3451973374  MEMB      126             0.0000000000
     14980       126  POPC      H18S          -55.4599983892       25.5892845103       -1.6540220931  MEMB      126             0.0000000000
     14981       126  POPC      H18T          -55.9780537229       25.7910748013        0.0102114118  MEMB      126             0.0000000000
     14982       126  POPC      C33           -57.0920942844       25.8085559226       13.1844337466  MEMB      126             0.0000000000
     14983       126  POPC      H3X           -56.0573944343       25.6099951792       12.8318841433  MEMB      126             0.0000000000
     14984       126  POPC      H3Y           -57.0833739568       25.8874336225       14.2925953997  MEMB      126             0.0000000000
     14985       126  POPC      C34           -57.3447752961       27.3160759471       12.9051792288  MEMB      126             0.0000000000
     14986       126  POPC      H4X           -56.5784490863       27.8625775831       13.4954340945  MEMB      126             0.0000000000
     14987       126  POPC      H4Y           -58.3482037043       27.4457167488       13.3641406006  MEMB      126             0.0000000000
     14988       126  POPC      C35           -57.4788555598       27.7294070946       11.4502494741  MEMB      126             0.0000000000
     14989       126  POPC      H5X           -57.6481649935       28.8265138208       11.4053907623  MEMB      126             0.0000000000
     14990       126  POPC      H5Y           -58.2023363802       27.0475593213       10.9542857107  MEMB      126             0.0000000000
     14991       126  POPC      C36           -56.1454096928       27.6610897693       10.6567239413  MEMB      126             0.0000000000
     14992       126  POPC      H6X           -55.7931828645       26.6197070194       10.4961654672  MEMB      126             0.0000000000
     14993       126  POPC      H6Y           -55.4016855400       28.3448887653       11.1189083936  MEMB      126             0.0000000000
     14994       126  POPC      C37           -56.4324552121       28.3007455826        9.2679221781  MEMB      126             0.0000000000
     14995       126  POPC      H7X           -56.6194218692       29.3906741278        9.3747848371  MEMB      126             0.0000000000
     14996       126  POPC      H7Y           -57.3512425006       27.8721981363        8.8135017547  MEMB      126             0.0000000000
     14997       126  POPC      C38           -55.3500067519       28.1014254762        8.2081665283  MEMB      126             0.0000000000
     14998       126  POPC      H8X           -55.0317911511       27.0708283100        8.4744921300  MEMB      126             0.0000000000
     14999       126  POPC      H8Y           -54.4682730806       28.7215631291        8.4770453596  MEMB      126             0.0000000000
     15000       126  POPC      C39           -55.7454756101       28.4642272896        6.7991049975  MEMB      126             0.0000000000
     15001       126  POPC      H9X           -54.8899445823       28.5206519482        6.0925612624  MEMB      126             0.0000000000
     15002       126  POPC      H9Y           -56.2885473565       29.4327849541        6.8350221529  MEMB      126             0.0000000000
     15003       126  POPC      C310          -56.6712505851       27.4904685465        6.0572861957  MEMB      126             0.0000000000
     15004       126  POPC      H10X          -56.8359581509       27.8907816379        5.0340840697  MEMB      126             0.0000000000
     15005       126  POPC      H10Y          -57.6624767030       27.3233289658        6.5304204746  MEMB      126             0.0000000000
     15006       126  POPC      C311          -55.9669819200       26.2076169334        5.8018067689  MEMB      126             0.0000000000
     15007       126  POPC      H11X          -55.5116926831       25.8017478491        6.7304090468  MEMB      126             0.0000000000
     15008       126  POPC      H11Y          -55.0943609442       26.4861082689        5.1730810808  MEMB      126             0.0000000000
     15009       126  POPC      C312          -56.9390017759       25.2007588642        5.2202739480  MEMB      126             0.0000000000
     15010       126  POPC      H12X          -57.5772989847       25.5802406059        4.3939011381  MEMB      126             0.0000000000
     15011       126  POPC      H12Y          -57.5772970099       24.7606070856        6.0159915026  MEMB      126             0.0000000000
     15012       126  POPC      C313          -56.1009860920       23.9722267316        4.8225290959  MEMB      126             0.0000000000
     15013       126  POPC      H13X          -55.7320817854       23.3360172008        5.6552761813  MEMB      126             0.0000000000
     15014       126  POPC      H13Y          -55.2218087761       24.3623299545        4.2664823680  MEMB      126             0.0000000000
     15015       126  POPC      C314          -56.6650402361       23.0468539033        3.7402634875  MEMB      126             0.0000000000
     15016       126  POPC      H14X          -56.6727707278       23.5931472253        2.7728837764  MEMB      126             0.0000000000
     15017       126  POPC      H14Y          -57.6671089608       22.7153305557        4.0870658385  MEMB      126             0.0000000000
     15018       126  POPC      C315          -55.8975534487       21.7192076407        3.5751057983  MEMB      126             0.0000000000
     15019       126  POPC      H15X          -55.6522844123       21.2485659052        4.5511494184  MEMB      126             0.0000000000
     15020       126  POPC      H15Y          -54.9106573698       22.0042500117        3.1518943757  MEMB      126             0.0000000000
     15021       126  POPC      C316          -56.6120539410       20.7221041221        2.6088981440  MEMB      126             0.0000000000
     15022       126  POPC      H16X          -57.6760433954       20.5313006753        2.8654943997  MEMB      126             0.0000000000
     15023       126  POPC      H16Y          -56.2063316994       19.6894222635        2.5516398024  MEMB      126             0.0000000000
     15024       126  POPC      H16Z          -56.7247423111       21.1635674816        1.5956200168  MEMB      126             0.0000000000
     15025       127  POPC      N              50.3824416514      -34.8697431067       18.0214332238  MEMB      127             0.0000000000
     15026       127  POPC      C12            51.0674139037      -33.5060646532       17.7074209313  MEMB      127             0.0000000000
     15027       127  POPC      H12A           50.5086887657      -33.0560919541       16.9001101230  MEMB      127             0.0000000000
     15028       127  POPC      H12B           52.0584656981      -33.7097787778       17.3296419691  MEMB      127             0.0000000000
     15029       127  POPC      C13            50.7351746882      -35.7512065204       16.8392149970  MEMB      127             0.0000000000
     15030       127  POPC      H13A           50.1507604085      -35.4930639030       15.9684552005  MEMB      127             0.0000000000
     15031       127  POPC      H13B           51.7818596637      -35.7430058299       16.5731634925  MEMB      127             0.0000000000
     15032       127  POPC      H13C           50.5016516777      -36.7924061608       17.0058603915  MEMB      127             0.0000000000
     15033       127  POPC      C14            50.9722580203      -35.3595649678       19.3132258197  MEMB      127             0.0000000000
     15034       127  POPC      H14A           50.6040945646      -36.3730562118       19.3739810336  MEMB      127             0.0000000000
     15035       127  POPC      H14B           52.0388263421      -35.1901843335       19.3251513877  MEMB      127             0.0000000000
     15036       127  POPC      H14C           50.5191860879      -34.7850292516       20.1076026511  MEMB      127             0.0000000000
     15037       127  POPC      C15            48.8980838831      -34.7792103556       18.2000843849  MEMB      127             0.0000000000
     15038       127  POPC      H15A           48.4712349285      -34.3529664222       17.3042517173  MEMB      127             0.0000000000
     15039       127  POPC      H15B           48.6204032929      -34.1922509643       19.0630862180  MEMB      127             0.0000000000
     15040       127  POPC      H15C           48.5099183068      -35.7752317691       18.3539315863  MEMB      127             0.0000000000
     15041       127  POPC      C11            51.1546629320      -32.3805801505       18.7607150358  MEMB      127             0.0000000000
     15042       127  POPC      H11A           50.0913503799      -32.0751600837       18.8627257106  MEMB      127             0.0000000000
     15043       127  POPC      H11B           51.6213917099      -31.4798884557       18.3076813636  MEMB      127             0.0000000000
     15044       127  POPC      P              53.3311606191      -32.8503770768       20.1177579923  MEMB      127             0.0000000000
     15045       127  POPC      O13            53.7330785902      -34.1645817818       20.6117383721  MEMB      127             0.0000000000
     15046       127  POPC      O14            53.8455693758      -31.6888308135       20.8451162526  MEMB      127             0.0000000000
     15047       127  POPC      O12            51.7738986721      -32.7775745686       20.0051892642  MEMB      127             0.0000000000
     15048       127  POPC      O11            53.7025486690      -32.7720369691       18.5781037496  MEMB      127             0.0000000000
     15049       127  POPC      C1             55.0140168088      -32.5314548239       18.1783156081  MEMB      127             0.0000000000
     15050       127  POPC      HA             55.8202637680      -33.1366946088       18.6451901155  MEMB      127             0.0000000000
     15051       127  POPC      HB             55.3196716599      -31.4680948655       18.2791206652  MEMB      127             0.0000000000
     15052       127  POPC      C2             55.2351873474      -32.7265473968       16.6403213437  MEMB      127             0.0000000000
     15053       127  POPC      HS             56.2701016650      -32.5342728005       16.2849281842  MEMB      127             0.0000000000
     15054       127  POPC      O21            54.2034490939      -32.1838024896       15.8102875890  MEMB      127             0.0000000000
     15055       127  POPC      C21            54.3819908881      -30.9169024558       15.5057104929  MEMB      127             0.0000000000
     15056       127  POPC      O22            55.3120225645      -30.2082972488       15.8204384830  MEMB      127             0.0000000000
     15057       127  POPC      C22            53.2951141584      -30.5430953810       14.6048086815  MEMB      127             0.0000000000
     15058       127  POPC      H2R            53.1605303668      -31.1488646428       13.6832602010  MEMB      127             0.0000000000
     15059       127  POPC      H2S            53.4877062682      -29.4939362793       14.2941733410  MEMB      127             0.0000000000
     15060       127  POPC      C3             55.2272457440      -34.2801858955       16.3397654016  MEMB      127             0.0000000000
     15061       127  POPC      HX             54.3382357960      -34.8804193489       16.6290786148  MEMB      127             0.0000000000
     15062       127  POPC      HY             56.0418404999      -34.7454836916       16.9349580885  MEMB      127             0.0000000000
     15063       127  POPC      O31            55.5744126922      -34.6823010744       14.9681122240  MEMB      127             0.0000000000
     15064       127  POPC      C31            54.7012713065      -35.2248789333       14.1057551923  MEMB      127             0.0000000000
     15065       127  POPC      O32            53.5364334997      -35.2986544892       14.3751941753  MEMB      127             0.0000000000
     15066       127  POPC      C32            55.3858546845      -35.6357372051       12.7900634902  MEMB      127             0.0000000000
     15067       127  POPC      H2X            55.1470558587      -36.7120874253       12.6530742160  MEMB      127             0.0000000000
     15068       127  POPC      H2Y            56.4810675579      -35.7198066402       12.9566848653  MEMB      127             0.0000000000
     15069       127  POPC      C23            51.9804048549      -30.4189629808       15.4385798657  MEMB      127             0.0000000000
     15070       127  POPC      H3R            52.1424898882      -29.7226999790       16.2890311256  MEMB      127             0.0000000000
     15071       127  POPC      H3S            51.5871243488      -31.4017761600       15.7758186058  MEMB      127             0.0000000000
     15072       127  POPC      C24            50.7914312766      -29.6697994579       14.6945889384  MEMB      127             0.0000000000
     15073       127  POPC      H4R            51.1083073576      -28.6104158531       14.5868068492  MEMB      127             0.0000000000
     15074       127  POPC      H4S            49.9200735070      -29.5787649966       15.3777941176  MEMB      127             0.0000000000
     15075       127  POPC      C25            50.3744422688      -30.2898908209       13.3554363349  MEMB      127             0.0000000000
     15076       127  POPC      H5R            51.1513955249      -30.0554894244       12.5966735193  MEMB      127             0.0000000000
     15077       127  POPC      H5S            49.5382747406      -29.5948827565       13.1271640348  MEMB      127             0.0000000000
     15078       127  POPC      C26            50.1515193163      -31.8800807668       13.2934873773  MEMB      127             0.0000000000
     15079       127  POPC      H6R            49.8270096338      -32.1830197871       14.3119382306  MEMB      127             0.0000000000
     15080       127  POPC      H6S            51.0900166258      -32.4728398239       13.3401819111  MEMB      127             0.0000000000
     15081       127  POPC      C27            49.1289416364      -32.3980631831       12.2633802943  MEMB      127             0.0000000000
     15082       127  POPC      H7R            48.1534422791      -32.2109067170       12.7610693316  MEMB      127             0.0000000000
     15083       127  POPC      H7S            49.1335125006      -33.4994506443       12.1176215322  MEMB      127             0.0000000000
     15084       127  POPC      C28            49.0582012689      -31.6650603282       10.8432473099  MEMB      127             0.0000000000
     15085       127  POPC      H8R            48.7574675507      -30.5977427754       10.9119037822  MEMB      127             0.0000000000
     15086       127  POPC      H8S            48.2736357143      -32.2285146031       10.2943424488  MEMB      127             0.0000000000
     15087       127  POPC      C29            50.3656367088      -31.8237475363       10.2043791729  MEMB      127             0.0000000000
     15088       127  POPC      H91            51.1345620771      -31.1016516010       10.5163582387  MEMB      127             0.0000000000
     15089       127  POPC      C210           50.7043722633      -32.7201330403        9.2145257688  MEMB      127             0.0000000000
     15090       127  POPC      H101           51.7669160143      -32.6876740773        8.9317762951  MEMB      127             0.0000000000
     15091       127  POPC      C211           49.8889964227      -33.7162184453        8.4673262694  MEMB      127             0.0000000000
     15092       127  POPC      H11R           48.8976147373      -33.9001596871        8.9338551202  MEMB      127             0.0000000000
     15093       127  POPC      H11S           50.4045447594      -34.6993507561        8.4228098425  MEMB      127             0.0000000000
     15094       127  POPC      C212           49.4825232447      -33.1713057435        7.1214575277  MEMB      127             0.0000000000
     15095       127  POPC      H12R           50.3341240888      -32.7670539200        6.5335141755  MEMB      127             0.0000000000
     15096       127  POPC      H12S           48.7576297337      -32.3376850593        7.2394708757  MEMB      127             0.0000000000
     15097       127  POPC      C213           48.6817672357      -34.2827202249        6.3000108743  MEMB      127             0.0000000000
     15098       127  POPC      H13R           48.0505119885      -34.7981840423        7.0550835703  MEMB      127             0.0000000000
     15099       127  POPC      H13S           49.4321641423      -35.0031141948        5.9098079203  MEMB      127             0.0000000000
     15100       127  POPC      C214           47.9005761761      -33.6895987967        5.1015725805  MEMB      127             0.0000000000
     15101       127  POPC      H14R           47.2179822084      -32.9414143179        5.5583065074  MEMB      127             0.0000000000
     15102       127  POPC      H14S           47.2018247792      -34.4941218538        4.7872309125  MEMB      127             0.0000000000
     15103       127  POPC      C215           48.7397666855      -33.1607579338        3.9038275564  MEMB      127             0.0000000000
     15104       127  POPC      H15R           49.5628764844      -33.8983001631        3.7905033421  MEMB      127             0.0000000000
     15105       127  POPC      H15S           49.1624442681      -32.2682940346        4.4129175051  MEMB      127             0.0000000000
     15106       127  POPC      C216           47.9304984048      -32.8371715941        2.6889450399  MEMB      127             0.0000000000
     15107       127  POPC      H16R           47.0842478500      -32.1541538145        2.9162521785  MEMB      127             0.0000000000
     15108       127  POPC      H16S           47.4822340822      -33.7051388332        2.1597813070  MEMB      127             0.0000000000
     15109       127  POPC      C217           48.8790192426      -32.2279182473        1.5637268401  MEMB      127             0.0000000000
     15110       127  POPC      H17R           49.4322086739      -31.3875068607        2.0349081454  MEMB      127             0.0000000000
     15111       127  POPC      H17S           48.3227632067      -31.8997838346        0.6597218189  MEMB      127             0.0000000000
     15112       127  POPC      C218           49.9462784418      -33.2160749297        1.0718528583  MEMB      127             0.0000000000
     15113       127  POPC      H18R           50.4223779952      -32.7080903534        0.2060569279  MEMB      127             0.0000000000
     15114       127  POPC      H18S           49.4118237271      -34.1192124950        0.7071311113  MEMB      127             0.0000000000
     15115       127  POPC      H18T           50.6007013044      -33.5446313663        1.9073779659  MEMB      127             0.0000000000
     15116       127  POPC      C33            55.0136623462      -34.8677870220       11.4928792116  MEMB      127             0.0000000000
     15117       127  POPC      H3X            53.9115359603      -34.7782219940       11.3850982545  MEMB      127             0.0000000000
     15118       127  POPC      H3Y            55.4687645242      -35.3330590005       10.5924760969  MEMB      127             0.0000000000
     15119       127  POPC      C34            55.6734831094      -33.4358350042       11.3488217455  MEMB      127             0.0000000000
     15120       127  POPC      H4X            56.7106413574      -33.5477009543       11.7310650082  MEMB      127             0.0000000000
     15121       127  POPC      H4Y            55.1656506914      -32.7236789744       12.0338483981  MEMB      127             0.0000000000
     15122       127  POPC      C35            55.6573167070      -32.7639341911        9.9266164018  MEMB      127             0.0000000000
     15123       127  POPC      H5X            55.8548913063      -31.6804162107       10.0724730199  MEMB      127             0.0000000000
     15124       127  POPC      H5Y            54.6046084943      -32.7942879373        9.5727733191  MEMB      127             0.0000000000
     15125       127  POPC      C36            56.8215251079      -33.2601625286        9.0625971535  MEMB      127             0.0000000000
     15126       127  POPC      H6X            56.7478258130      -34.3461348502        8.8399918494  MEMB      127             0.0000000000
     15127       127  POPC      H6Y            57.6833611111      -33.1826037529        9.7594074408  MEMB      127             0.0000000000
     15128       127  POPC      C37            57.0372731964      -32.4298376734        7.7880481007  MEMB      127             0.0000000000
     15129       127  POPC      H7X            58.0302652824      -32.6888796355        7.3623903608  MEMB      127             0.0000000000
     15130       127  POPC      H7Y            57.1165982651      -31.3289466317        7.9148050450  MEMB      127             0.0000000000
     15131       127  POPC      C38            55.9012360192      -32.8048189383        6.7855525899  MEMB      127             0.0000000000
     15132       127  POPC      H8X            55.0186401451      -32.3212199385        7.2561661212  MEMB      127             0.0000000000
     15133       127  POPC      H8Y            55.6767918434      -33.8862432635        6.9058329226  MEMB      127             0.0000000000
     15134       127  POPC      C39            56.2620006495      -32.4581872798        5.2860700484  MEMB      127             0.0000000000
     15135       127  POPC      H9X            56.9036554853      -31.5590035687        5.1674563368  MEMB      127             0.0000000000
     15136       127  POPC      H9Y            55.3983539054      -32.0977941895        4.6872780815  MEMB      127             0.0000000000
     15137       127  POPC      C310           56.8717048569      -33.6461077230        4.4821061002  MEMB      127             0.0000000000
     15138       127  POPC      H10X           56.1061633510      -34.4358539623        4.3253632100  MEMB      127             0.0000000000
     15139       127  POPC      H10Y           57.5705409718      -33.9814280321        5.2780389726  MEMB      127             0.0000000000
     15140       127  POPC      C311           57.5594766029      -33.2777776523        3.1820509216  MEMB      127             0.0000000000
     15141       127  POPC      H11X           58.3008701387      -34.0747879796        2.9597206359  MEMB      127             0.0000000000
     15142       127  POPC      H11Y           58.0716266958      -32.2926694931        3.1422398483  MEMB      127             0.0000000000
     15143       127  POPC      C312           56.6465371877      -33.3865912269        1.9415556463  MEMB      127             0.0000000000
     15144       127  POPC      H12X           56.1689836996      -34.3892623833        1.9113190617  MEMB      127             0.0000000000
     15145       127  POPC      H12Y           57.2490913387      -33.1821759035        1.0308068724  MEMB      127             0.0000000000
     15146       127  POPC      C313           55.4668301859      -32.3950992777        1.8933930359  MEMB      127             0.0000000000
     15147       127  POPC      H13X           55.8040135570      -31.4388005431        1.4393874828  MEMB      127             0.0000000000
     15148       127  POPC      H13Y           54.8847494185      -32.1783185232        2.8145381499  MEMB      127             0.0000000000
     15149       127  POPC      C314           54.3651879669      -32.8893514868        0.9660234177  MEMB      127             0.0000000000
     15150       127  POPC      H14X           54.7814601011      -32.8380428360       -0.0627638111  MEMB      127             0.0000000000
     15151       127  POPC      H14Y           53.5235051887      -32.1654338949        0.9231929735  MEMB      127             0.0000000000
     15152       127  POPC      C315           53.7309780331      -34.2513034628        1.2457964963  MEMB      127             0.0000000000
     15153       127  POPC      H15X           54.4683613357      -35.0328792790        0.9634392369  MEMB      127             0.0000000000
     15154       127  POPC      H15Y           52.8523241441      -34.3756003581        0.5773367930  MEMB      127             0.0000000000
     15155       127  POPC      C316           53.4234291614      -34.5712422144        2.6880477624  MEMB      127             0.0000000000
     15156       127  POPC      H16X           54.2262312457      -35.1139799069        3.2314313154  MEMB      127             0.0000000000
     15157       127  POPC      H16Y           52.5314699293      -35.2314109320        2.7419661188  MEMB      127             0.0000000000
     15158       127  POPC      H16Z           53.1561788493      -33.6091945242        3.1752475213  MEMB      127             0.0000000000
     15159       128  POPC      N             -38.2351383292      -47.6906043872       20.8648458002  MEMB      128             0.0000000000
     15160       128  POPC      C12           -38.0924592839      -49.2154767217       20.6397228496  MEMB      128             0.0000000000
     15161       128  POPC      H12A          -38.3535808758      -49.5822872256       21.6213875548  MEMB      128             0.0000000000
     15162       128  POPC      H12B          -37.0475793904      -49.3548447282       20.4047706611  MEMB      128             0.0000000000
     15163       128  POPC      C13           -38.0090049725      -46.8804818261       19.6502238504  MEMB      128             0.0000000000
     15164       128  POPC      H13A          -38.3965916190      -45.8860379826       19.8153240138  MEMB      128             0.0000000000
     15165       128  POPC      H13B          -36.9656059765      -46.7048349977       19.4337368908  MEMB      128             0.0000000000
     15166       128  POPC      H13C          -38.3655373697      -47.3561814121       18.7485616490  MEMB      128             0.0000000000
     15167       128  POPC      C14           -39.6681396352      -47.4012748218       21.3446510561  MEMB      128             0.0000000000
     15168       128  POPC      H14A          -40.2837863692      -47.6433632625       20.4909694575  MEMB      128             0.0000000000
     15169       128  POPC      H14B          -39.9655117310      -48.1208411188       22.0931123009  MEMB      128             0.0000000000
     15170       128  POPC      H14C          -39.7415368697      -46.3917001203       21.7211768809  MEMB      128             0.0000000000
     15171       128  POPC      C15           -37.3436901378      -47.2639407187       22.0864771503  MEMB      128             0.0000000000
     15172       128  POPC      H15A          -36.3387822994      -47.4408379063       21.7325456580  MEMB      128             0.0000000000
     15173       128  POPC      H15B          -37.5052115776      -47.8265867967       22.9940785601  MEMB      128             0.0000000000
     15174       128  POPC      H15C          -37.5510622214      -46.2210437590       22.2755871642  MEMB      128             0.0000000000
     15175       128  POPC      C11           -38.9401485983      -49.9060802722       19.4795363669  MEMB      128             0.0000000000
     15176       128  POPC      H11A          -39.9998648056      -49.6982208542       19.7405288236  MEMB      128             0.0000000000
     15177       128  POPC      H11B          -38.6963963871      -50.9853993156       19.5794175872  MEMB      128             0.0000000000
     15178       128  POPC      P             -39.4205030504      -49.5843964986       16.9335292560  MEMB      128             0.0000000000
     15179       128  POPC      O13           -40.4973667769      -50.5700521807       17.1815130657  MEMB      128             0.0000000000
     15180       128  POPC      O14           -38.4525527167      -49.7600288778       15.7963145039  MEMB      128             0.0000000000
     15181       128  POPC      O12           -38.5018042949      -49.4792230605       18.1839099413  MEMB      128             0.0000000000
     15182       128  POPC      O11           -40.1048134128      -48.1204982062       16.8392761590  MEMB      128             0.0000000000
     15183       128  POPC      C1            -41.1745772698      -47.8129067235       17.6714973059  MEMB      128             0.0000000000
     15184       128  POPC      HA            -40.7908029573      -47.5118098534       18.6696851325  MEMB      128             0.0000000000
     15185       128  POPC      HB            -41.8833818390      -48.6618002803       17.7777833610  MEMB      128             0.0000000000
     15186       128  POPC      C2            -41.9539264734      -46.5338567311       17.1696378060  MEMB      128             0.0000000000
     15187       128  POPC      HS            -43.0296252399      -46.6048979277       17.4382390680  MEMB      128             0.0000000000
     15188       128  POPC      O21           -41.7829357450      -46.4390922561       15.7143524971  MEMB      128             0.0000000000
     15189       128  POPC      C21           -42.6823509598      -46.9964621788       14.9990198684  MEMB      128             0.0000000000
     15190       128  POPC      O22           -43.7191532700      -47.5060601577       15.4614153028  MEMB      128             0.0000000000
     15191       128  POPC      C22           -42.2672388325      -47.0865622521       13.4958934862  MEMB      128             0.0000000000
     15192       128  POPC      H2R           -41.9900767209      -48.1042465703       13.1468645127  MEMB      128             0.0000000000
     15193       128  POPC      H2S           -41.3336465218      -46.4895073972       13.4168238405  MEMB      128             0.0000000000
     15194       128  POPC      C3            -41.3922610010      -45.2012570792       17.8226654357  MEMB      128             0.0000000000
     15195       128  POPC      HX            -41.5969991677      -45.0950461613       18.9094600833  MEMB      128             0.0000000000
     15196       128  POPC      HY            -41.9036390761      -44.3525796098       17.3201117836  MEMB      128             0.0000000000
     15197       128  POPC      O31           -39.9920199360      -45.0561116453       17.5945135019  MEMB      128             0.0000000000
     15198       128  POPC      C31           -39.5473199626      -44.4586204145       16.4788038784  MEMB      128             0.0000000000
     15199       128  POPC      O32           -40.2163879534      -43.9158978489       15.6029517821  MEMB      128             0.0000000000
     15200       128  POPC      C32           -38.0482537828      -44.5232429161       16.4851390742  MEMB      128             0.0000000000
     15201       128  POPC      H2X           -37.6652745040      -44.5569326085       17.5274984591  MEMB      128             0.0000000000
     15202       128  POPC      H2Y           -37.7193687499      -43.5569607726       16.0464428205  MEMB      128             0.0000000000
     15203       128  POPC      C23           -43.3275707231      -46.3370328309       12.7014027621  MEMB      128             0.0000000000
     15204       128  POPC      H3R           -43.7463343587      -45.4461562223       13.2164731568  MEMB      128             0.0000000000
     15205       128  POPC      H3S           -44.1912065569      -46.9860676592       12.4421575092  MEMB      128             0.0000000000
     15206       128  POPC      C24           -42.7599149839      -45.8792134210       11.3282686524  MEMB      128             0.0000000000
     15207       128  POPC      H4R           -41.9417248870      -45.1286690492       11.2886558306  MEMB      128             0.0000000000
     15208       128  POPC      H4S           -43.6071467528      -45.5099846322       10.7116731746  MEMB      128             0.0000000000
     15209       128  POPC      C25           -42.1755940940      -47.0354045607       10.4522455298  MEMB      128             0.0000000000
     15210       128  POPC      H5R           -42.9434534810      -47.8151783370       10.2607613641  MEMB      128             0.0000000000
     15211       128  POPC      H5S           -41.3225004513      -47.5398764459       10.9543016787  MEMB      128             0.0000000000
     15212       128  POPC      C26           -41.7011125227      -46.4057337002        9.1201749098  MEMB      128             0.0000000000
     15213       128  POPC      H6R           -40.8210680708      -45.7768237567        9.3737797642  MEMB      128             0.0000000000
     15214       128  POPC      H6S           -42.4543570665      -45.6933936367        8.7207811647  MEMB      128             0.0000000000
     15215       128  POPC      C27           -41.3663424777      -47.3642991060        7.9711913827  MEMB      128             0.0000000000
     15216       128  POPC      H7R           -42.2795071194      -47.9574514519        7.7506885638  MEMB      128             0.0000000000
     15217       128  POPC      H7S           -40.7274716267      -48.2304310333        8.2468367624  MEMB      128             0.0000000000
     15218       128  POPC      C28           -40.8567666483      -46.6745969712        6.7026129414  MEMB      128             0.0000000000
     15219       128  POPC      H8R           -40.5656779286      -47.4700843152        5.9837326101  MEMB      128             0.0000000000
     15220       128  POPC      H8S           -39.8805097166      -46.1757309888        6.8825459528  MEMB      128             0.0000000000
     15221       128  POPC      C29           -41.8600786064      -45.8049873583        6.0335707974  MEMB      128             0.0000000000
     15222       128  POPC      H91           -42.8932354343      -46.1806042726        6.0722894097  MEMB      128             0.0000000000
     15223       128  POPC      C210          -41.6966401063      -44.6538596065        5.2587054114  MEMB      128             0.0000000000
     15224       128  POPC      H101          -42.4762419038      -44.0399181257        4.7840506216  MEMB      128             0.0000000000
     15225       128  POPC      C211          -40.2647164846      -44.1331283562        5.0870318524  MEMB      128             0.0000000000
     15226       128  POPC      H11R          -39.6593063679      -44.0653659387        6.0161216549  MEMB      128             0.0000000000
     15227       128  POPC      H11S          -40.3106471608      -43.0447998519        4.8685103368  MEMB      128             0.0000000000
     15228       128  POPC      C212          -39.4574776685      -44.8693397911        4.0239901595  MEMB      128             0.0000000000
     15229       128  POPC      H12R          -39.9012388287      -44.8499773739        3.0056475547  MEMB      128             0.0000000000
     15230       128  POPC      H12S          -39.1889360815      -45.8626660004        4.4429293742  MEMB      128             0.0000000000
     15231       128  POPC      C213          -38.0944553731      -44.2016894282        3.7167905975  MEMB      128             0.0000000000
     15232       128  POPC      H13R          -37.5716924688      -43.8403628355        4.6280993921  MEMB      128             0.0000000000
     15233       128  POPC      H13S          -38.2667396035      -43.2679749292        3.1398893142  MEMB      128             0.0000000000
     15234       128  POPC      C214          -37.1266312638      -45.0600951446        2.9097378491  MEMB      128             0.0000000000
     15235       128  POPC      H14R          -36.9391306613      -46.0483426151        3.3814702827  MEMB      128             0.0000000000
     15236       128  POPC      H14S          -36.1685625714      -44.4976385769        2.9015042273  MEMB      128             0.0000000000
     15237       128  POPC      C215          -37.5432907207      -45.4302549984        1.4020154863  MEMB      128             0.0000000000
     15238       128  POPC      H15R          -38.3672656980      -46.1567798269        1.2360408879  MEMB      128             0.0000000000
     15239       128  POPC      H15S          -36.5924496181      -45.8880720958        1.0547040681  MEMB      128             0.0000000000
     15240       128  POPC      C216          -37.7739212711      -44.2166220810        0.4995383517  MEMB      128             0.0000000000
     15241       128  POPC      H16R          -37.0036636510      -43.5146463978        0.8845760942  MEMB      128             0.0000000000
     15242       128  POPC      H16S          -38.7560477364      -43.7199079416        0.6512736894  MEMB      128             0.0000000000
     15243       128  POPC      C217          -37.3976773544      -44.4059131103       -0.9071097806  MEMB      128             0.0000000000
     15244       128  POPC      H17R          -36.3353516064      -44.7158315987       -0.8084397592  MEMB      128             0.0000000000
     15245       128  POPC      H17S          -37.2618915741      -43.4075228095       -1.3751898656  MEMB      128             0.0000000000
     15246       128  POPC      C218          -38.2281172549      -45.3131125252       -1.7450625560  MEMB      128             0.0000000000
     15247       128  POPC      H18R          -39.2043306694      -44.8037822780       -1.8930842474  MEMB      128             0.0000000000
     15248       128  POPC      H18S          -38.2242035676      -46.2937716032       -1.2229386003  MEMB      128             0.0000000000
     15249       128  POPC      H18T          -37.7378511661      -45.4007507495       -2.7381776984  MEMB      128             0.0000000000
     15250       128  POPC      C33           -37.5358360624      -45.7043396043       15.6214941155  MEMB      128             0.0000000000
     15251       128  POPC      H3X           -37.8348663536      -46.7087092303       15.9904701445  MEMB      128             0.0000000000
     15252       128  POPC      H3Y           -36.4393965404      -45.5999561450       15.7672521175  MEMB      128             0.0000000000
     15253       128  POPC      C34           -38.0199856394      -45.4485701242       14.1967423543  MEMB      128             0.0000000000
     15254       128  POPC      H4X           -37.9526463282      -44.3661316438       13.9556745723  MEMB      128             0.0000000000
     15255       128  POPC      H4Y           -39.1284324080      -45.5130590005       14.1579112093  MEMB      128             0.0000000000
     15256       128  POPC      C35           -37.3826683724      -46.4289913326       13.2251633461  MEMB      128             0.0000000000
     15257       128  POPC      H5X           -37.3661431693      -47.4904373669       13.5528525144  MEMB      128             0.0000000000
     15258       128  POPC      H5Y           -36.3482865678      -46.0380111670       13.1178797194  MEMB      128             0.0000000000
     15259       128  POPC      C36           -38.0436888892      -46.5032184055       11.8140312545  MEMB      128             0.0000000000
     15260       128  POPC      H6X           -37.9907943494      -45.4545116298       11.4510749490  MEMB      128             0.0000000000
     15261       128  POPC      H6Y           -39.0898098229      -46.8755992802       11.8498687716  MEMB      128             0.0000000000
     15262       128  POPC      C37           -37.2046748477      -47.3515055992       10.8320331829  MEMB      128             0.0000000000
     15263       128  POPC      H7X           -37.0414328312      -48.3343103000       11.3237322020  MEMB      128             0.0000000000
     15264       128  POPC      H7Y           -36.2982127375      -46.7554524984       10.5925161719  MEMB      128             0.0000000000
     15265       128  POPC      C38           -37.8172471260      -47.5199622109        9.4231659148  MEMB      128             0.0000000000
     15266       128  POPC      H8X           -37.9263594818      -46.4734854345        9.0663716205  MEMB      128             0.0000000000
     15267       128  POPC      H8Y           -38.8056260323      -48.0263013755        9.3907814018  MEMB      128             0.0000000000
     15268       128  POPC      C39           -36.9748812127      -48.2737489048        8.3857486783  MEMB      128             0.0000000000
     15269       128  POPC      H9X           -36.7437622307      -49.2527446302        8.8574182686  MEMB      128             0.0000000000
     15270       128  POPC      H9Y           -36.0475073168      -47.6901523200        8.2021362067  MEMB      128             0.0000000000
     15271       128  POPC      C310          -37.7403737491      -48.5271681362        7.0511128840  MEMB      128             0.0000000000
     15272       128  POPC      H10X          -37.8051641697      -47.5687384589        6.4929589099  MEMB      128             0.0000000000
     15273       128  POPC      H10Y          -38.7185947345      -48.9395167446        7.3787918769  MEMB      128             0.0000000000
     15274       128  POPC      C311          -37.0291290210      -49.6226832007        6.2263094692  MEMB      128             0.0000000000
     15275       128  POPC      H11X          -37.3031653618      -50.6155998627        6.6426525861  MEMB      128             0.0000000000
     15276       128  POPC      H11Y          -35.9331107791      -49.5009870904        6.3614210717  MEMB      128             0.0000000000
     15277       128  POPC      C312          -37.0807794592      -49.3238908374        4.6875487174  MEMB      128             0.0000000000
     15278       128  POPC      H12X          -36.1642428977      -49.7644709662        4.2401432191  MEMB      128             0.0000000000
     15279       128  POPC      H12Y          -36.8693177109      -48.2332380383        4.6965691100  MEMB      128             0.0000000000
     15280       128  POPC      C313          -38.4314341645      -49.5338693708        3.9678391449  MEMB      128             0.0000000000
     15281       128  POPC      H13X          -39.1533181725      -48.9528159692        4.5806860008  MEMB      128             0.0000000000
     15282       128  POPC      H13Y          -38.7685986457      -50.5906052714        3.9049878317  MEMB      128             0.0000000000
     15283       128  POPC      C314          -38.5294307538      -49.0248890154        2.4832779160  MEMB      128             0.0000000000
     15284       128  POPC      H14X          -38.5263710789      -47.9206873328        2.3605958487  MEMB      128             0.0000000000
     15285       128  POPC      H14Y          -39.5321511247      -49.3516787019        2.1338747069  MEMB      128             0.0000000000
     15286       128  POPC      C315          -37.4259709946      -49.6462017671        1.6353443932  MEMB      128             0.0000000000
     15287       128  POPC      H15X          -36.4370803037      -49.2958208772        2.0009243891  MEMB      128             0.0000000000
     15288       128  POPC      H15Y          -37.4058685502      -49.3365524914        0.5685585158  MEMB      128             0.0000000000
     15289       128  POPC      C316          -37.4414570356      -51.2088318795        1.5154416855  MEMB      128             0.0000000000
     15290       128  POPC      H16X          -38.4764029135      -51.5247511352        1.2636397175  MEMB      128             0.0000000000
     15291       128  POPC      H16Y          -37.0794050366      -51.7930310701        2.3883387208  MEMB      128             0.0000000000
     15292       128  POPC      H16Z          -36.8219237711      -51.4181632652        0.6172877495  MEMB      128             0.0000000000
     15293       129  POPC      N              56.4489915174      -28.2543193538       20.6629506382  MEMB      129             0.0000000000
     15294       129  POPC      C12            57.4783443539      -27.1410982022       20.4075172037  MEMB      129             0.0000000000
     15295       129  POPC      H12A           57.9551361533      -26.9238689001       21.3519118215  MEMB      129             0.0000000000
     15296       129  POPC      H12B           56.9152220085      -26.2821448169       20.0736125719  MEMB      129             0.0000000000
     15297       129  POPC      C13            55.5547195833      -28.5806672578       19.4666313971  MEMB      129             0.0000000000
     15298       129  POPC      H13A           55.1009600886      -27.6238790506       19.2543611350  MEMB      129             0.0000000000
     15299       129  POPC      H13B           56.1008420742      -28.8866470559       18.5865594699  MEMB      129             0.0000000000
     15300       129  POPC      H13C           54.8701301593      -29.3427933028       19.8085394405  MEMB      129             0.0000000000
     15301       129  POPC      C14            57.2099358279      -29.5621547200       21.0093894235  MEMB      129             0.0000000000
     15302       129  POPC      H14A           56.5488118766      -30.1911403757       21.5870505007  MEMB      129             0.0000000000
     15303       129  POPC      H14B           57.5969450379      -29.9981689390       20.1002604680  MEMB      129             0.0000000000
     15304       129  POPC      H14C           58.0805242673      -29.3079550360       21.5957835777  MEMB      129             0.0000000000
     15305       129  POPC      C15            55.6017815066      -27.7580609760       21.8476622814  MEMB      129             0.0000000000
     15306       129  POPC      H15A           55.1148355011      -28.6208718298       22.2775938495  MEMB      129             0.0000000000
     15307       129  POPC      H15B           54.9334160944      -26.9585760428       21.5639166672  MEMB      129             0.0000000000
     15308       129  POPC      H15C           56.3716050663      -27.3030625666       22.4532595050  MEMB      129             0.0000000000
     15309       129  POPC      C11            58.5574021126      -27.3276721851       19.3170446146  MEMB      129             0.0000000000
     15310       129  POPC      H11A           59.1853131431      -28.2270749133       19.4934630553  MEMB      129             0.0000000000
     15311       129  POPC      H11B           59.2893692376      -26.5243779029       19.5478331482  MEMB      129             0.0000000000
     15312       129  POPC      P              57.5931154048      -26.0967222419       17.2964318588  MEMB      129             0.0000000000
     15313       129  POPC      O13            58.8219852405      -25.3133099537       17.0364161838  MEMB      129             0.0000000000
     15314       129  POPC      O14            56.4479642292      -25.4346906967       18.0480314125  MEMB      129             0.0000000000
     15315       129  POPC      O12            58.0214814869      -27.4358239131       18.0018408063  MEMB      129             0.0000000000
     15316       129  POPC      O11            56.9373193358      -26.5634173950       15.9060841763  MEMB      129             0.0000000000
     15317       129  POPC      C1             55.6452200961      -27.0651858357       15.8892754913  MEMB      129             0.0000000000
     15318       129  POPC      HA             54.9314070062      -26.2143319331       15.9182470642  MEMB      129             0.0000000000
     15319       129  POPC      HB             55.4460138734      -27.6995784250       16.7793225811  MEMB      129             0.0000000000
     15320       129  POPC      C2             55.5193041178      -27.8378158522       14.5320638025  MEMB      129             0.0000000000
     15321       129  POPC      HS             54.7573327070      -28.6377069943       14.6499395843  MEMB      129             0.0000000000
     15322       129  POPC      O21            56.7387305238      -28.5216482063       14.2267926679  MEMB      129             0.0000000000
     15323       129  POPC      C21            56.9591769774      -29.6517360151       14.7536302067  MEMB      129             0.0000000000
     15324       129  POPC      O22            56.1251911076      -30.3024237453       15.3955854893  MEMB      129             0.0000000000
     15325       129  POPC      C22            58.4195258082      -30.1602231337       14.5056980972  MEMB      129             0.0000000000
     15326       129  POPC      H2R            58.4607273298      -31.2702175506       14.4825531021  MEMB      129             0.0000000000
     15327       129  POPC      H2S            58.9814462317      -29.7686502433       15.3804766467  MEMB      129             0.0000000000
     15328       129  POPC      C3             55.1833447629      -26.8916424656       13.3277155923  MEMB      129             0.0000000000
     15329       129  POPC      HX             56.0543877240      -26.2162807694       13.1881025200  MEMB      129             0.0000000000
     15330       129  POPC      HY             54.3500209074      -26.2063247897       13.5927290336  MEMB      129             0.0000000000
     15331       129  POPC      O31            54.9692606744      -27.6319992278       12.0995742505  MEMB      129             0.0000000000
     15332       129  POPC      C31            53.8171659447      -28.2242795003       12.0537336326  MEMB      129             0.0000000000
     15333       129  POPC      O32            52.8205783768      -28.1357973576       12.8197235682  MEMB      129             0.0000000000
     15334       129  POPC      C32            53.8968133941      -29.1445667029       10.8210320475  MEMB      129             0.0000000000
     15335       129  POPC      H2X            54.1459679914      -28.5310744958        9.9289165460  MEMB      129             0.0000000000
     15336       129  POPC      H2Y            52.9314070985      -29.6582634336       10.6250042430  MEMB      129             0.0000000000
     15337       129  POPC      C23            59.0496876531      -29.5271230434       13.1716387471  MEMB      129             0.0000000000
     15338       129  POPC      H3R            58.3310093284      -29.4630688606       12.3268195414  MEMB      129             0.0000000000
     15339       129  POPC      H3S            59.9116641914      -30.1462480341       12.8430029236  MEMB      129             0.0000000000
     15340       129  POPC      C24            59.7803926451      -28.1891262989       13.4990737429  MEMB      129             0.0000000000
     15341       129  POPC      H4R            60.3825026485      -28.5027898957       14.3785052092  MEMB      129             0.0000000000
     15342       129  POPC      H4S            59.1075557048      -27.3759830286       13.8460743204  MEMB      129             0.0000000000
     15343       129  POPC      C25            60.5744339059      -27.5930656569       12.4290107313  MEMB      129             0.0000000000
     15344       129  POPC      H5R            61.2591353250      -28.3553303519       11.9995256122  MEMB      129             0.0000000000
     15345       129  POPC      H5S            61.2222609725      -26.7937959308       12.8483065446  MEMB      129             0.0000000000
     15346       129  POPC      C26            59.8576787360      -27.0821126757       11.1713957842  MEMB      129             0.0000000000
     15347       129  POPC      H6R            58.9555200185      -26.4547036055       11.3350673020  MEMB      129             0.0000000000
     15348       129  POPC      H6S            59.5083049478      -27.9885511055       10.6322963601  MEMB      129             0.0000000000
     15349       129  POPC      C27            60.7746802140      -26.3270314969       10.1533147993  MEMB      129             0.0000000000
     15350       129  POPC      H7R            61.8105339454      -26.7116076914       10.0374270004  MEMB      129             0.0000000000
     15351       129  POPC      H7S            61.0318103531      -25.3594514663       10.6349720192  MEMB      129             0.0000000000
     15352       129  POPC      C28            60.0411445968      -26.0238623632        8.9262902430  MEMB      129             0.0000000000
     15353       129  POPC      H8R            59.6795385723      -27.0371374823        8.6490973061  MEMB      129             0.0000000000
     15354       129  POPC      H8S            60.8721782068      -25.7312380746        8.2494777457  MEMB      129             0.0000000000
     15355       129  POPC      C29            58.8409953594      -25.0189001319        8.9434110100  MEMB      129             0.0000000000
     15356       129  POPC      H91            59.0854710721      -23.9506405030        9.0385578658  MEMB      129             0.0000000000
     15357       129  POPC      C210           57.5581214610      -25.3532983051        8.9401630799  MEMB      129             0.0000000000
     15358       129  POPC      H101           56.8932398462      -24.4789771850        8.9992810188  MEMB      129             0.0000000000
     15359       129  POPC      C211           56.9031295609      -26.6926140102        8.9492120726  MEMB      129             0.0000000000
     15360       129  POPC      H11R           56.3231599059      -26.7879942510        9.8920046989  MEMB      129             0.0000000000
     15361       129  POPC      H11S           57.6254168117      -27.4867879906        9.2354106722  MEMB      129             0.0000000000
     15362       129  POPC      C212           56.0368841484      -27.2471060408        7.7797418870  MEMB      129             0.0000000000
     15363       129  POPC      H12R           55.8686204962      -28.3221464274        8.0040110672  MEMB      129             0.0000000000
     15364       129  POPC      H12S           56.6714187925      -27.1267783302        6.8757464193  MEMB      129             0.0000000000
     15365       129  POPC      C213           54.8006904977      -26.4965667455        7.4474241370  MEMB      129             0.0000000000
     15366       129  POPC      H13R           55.0361060340      -25.4107956180        7.4487384719  MEMB      129             0.0000000000
     15367       129  POPC      H13S           53.9835354889      -26.7612304573        8.1520741992  MEMB      129             0.0000000000
     15368       129  POPC      C214           54.1893614338      -26.7044192336        6.0822065862  MEMB      129             0.0000000000
     15369       129  POPC      H14R           54.8891749007      -26.4005981346        5.2745712983  MEMB      129             0.0000000000
     15370       129  POPC      H14S           53.3236356163      -26.0251981329        5.9289161497  MEMB      129             0.0000000000
     15371       129  POPC      C215           53.6790460829      -28.1621544772        5.9838829215  MEMB      129             0.0000000000
     15372       129  POPC      H15R           53.0351482139      -28.3992113835        6.8576797049  MEMB      129             0.0000000000
     15373       129  POPC      H15S           54.5126606820      -28.8965756757        5.9781148341  MEMB      129             0.0000000000
     15374       129  POPC      C216           52.8055325312      -28.4592628889        4.8220964644  MEMB      129             0.0000000000
     15375       129  POPC      H16R           51.8823395093      -27.8426056699        4.8641637044  MEMB      129             0.0000000000
     15376       129  POPC      H16S           52.4737873914      -29.5104967608        4.9605641058  MEMB      129             0.0000000000
     15377       129  POPC      C217           53.5326431463      -28.1162143855        3.5611106703  MEMB      129             0.0000000000
     15378       129  POPC      H17R           54.5135163893      -28.5963529348        3.7652574369  MEMB      129             0.0000000000
     15379       129  POPC      H17S           53.7344908026      -27.0249563463        3.6134021126  MEMB      129             0.0000000000
     15380       129  POPC      C218           52.9343842847      -28.4955700825        2.1659055897  MEMB      129             0.0000000000
     15381       129  POPC      H18R           53.6014727205      -28.4691647009        1.2778660660  MEMB      129             0.0000000000
     15382       129  POPC      H18S           52.0887905552      -27.8033082366        1.9657435516  MEMB      129             0.0000000000
     15383       129  POPC      H18T           52.5943725301      -29.5454463641        2.2942521665  MEMB      129             0.0000000000
     15384       129  POPC      C33            54.9453357763      -30.2345289258       11.1760728165  MEMB      129             0.0000000000
     15385       129  POPC      H3X            54.7721800961      -30.5382257071       12.2306375848  MEMB      129             0.0000000000
     15386       129  POPC      H3Y            55.9791039750      -29.8557123495       11.0272704307  MEMB      129             0.0000000000
     15387       129  POPC      C34            54.6745201487      -31.4070821811       10.1381769417  MEMB      129             0.0000000000
     15388       129  POPC      H4X            53.5794349451      -31.5702812272       10.0461127753  MEMB      129             0.0000000000
     15389       129  POPC      H4Y            55.1769394762      -32.3259438114       10.5091084723  MEMB      129             0.0000000000
     15390       129  POPC      C35            55.2796120656      -31.2273333415        8.8107138212  MEMB      129             0.0000000000
     15391       129  POPC      H5X            56.3903784181      -31.2478354555        8.8007727731  MEMB      129             0.0000000000
     15392       129  POPC      H5Y            54.9296526283      -30.2411978021        8.4373701877  MEMB      129             0.0000000000
     15393       129  POPC      C36            54.8693217476      -32.2272390018        7.7628679352  MEMB      129             0.0000000000
     15394       129  POPC      H6X            53.7923787948      -32.4943348633        7.8192143897  MEMB      129             0.0000000000
     15395       129  POPC      H6Y            55.4091391364      -33.1456277024        8.0782729605  MEMB      129             0.0000000000
     15396       129  POPC      C37            55.1872077179      -31.8452760615        6.3264320851  MEMB      129             0.0000000000
     15397       129  POPC      H7X            54.3558457419      -31.1365866297        6.1241523875  MEMB      129             0.0000000000
     15398       129  POPC      H7Y            54.9803232684      -32.6937303699        5.6396684631  MEMB      129             0.0000000000
     15399       129  POPC      C38            56.6029450465      -31.2228670247        6.1601354340  MEMB      129             0.0000000000
     15400       129  POPC      H8X            57.3315024847      -31.9346926795        6.6037896908  MEMB      129             0.0000000000
     15401       129  POPC      H8Y            56.7730212351      -30.2629081243        6.6929333754  MEMB      129             0.0000000000
     15402       129  POPC      C39            56.9790597513      -31.0565544040        4.6591508165  MEMB      129             0.0000000000
     15403       129  POPC      H9X            56.2883633953      -30.3477085104        4.1543769138  MEMB      129             0.0000000000
     15404       129  POPC      H9Y            56.8891921950      -32.0901260177        4.2616909536  MEMB      129             0.0000000000
     15405       129  POPC      C310           58.4416685581      -30.6427171517        4.5045063154  MEMB      129             0.0000000000
     15406       129  POPC      H10X           58.7162282358      -30.6348505153        3.4279947960  MEMB      129             0.0000000000
     15407       129  POPC      H10Y           59.0614756391      -31.4133056504        5.0108200964  MEMB      129             0.0000000000
     15408       129  POPC      C311           58.8255556787      -29.2501436653        5.2160435502  MEMB      129             0.0000000000
     15409       129  POPC      H11X           59.8818285977      -29.1713955745        4.8807722046  MEMB      129             0.0000000000
     15410       129  POPC      H11Y           58.7529942031      -29.1464084603        6.3198075455  MEMB      129             0.0000000000
     15411       129  POPC      C312           58.1718463586      -28.0234036807        4.5101703549  MEMB      129             0.0000000000
     15412       129  POPC      H12X           57.1142073606      -28.0312427351        4.8502573337  MEMB      129             0.0000000000
     15413       129  POPC      H12Y           58.1727742793      -28.2193974352        3.4165951248  MEMB      129             0.0000000000
     15414       129  POPC      C313           58.7746554051      -26.6526120194        4.8367000759  MEMB      129             0.0000000000
     15415       129  POPC      H13X           59.8685736251      -26.6141907197        4.6464688366  MEMB      129             0.0000000000
     15416       129  POPC      H13Y           58.5794043771      -26.5559590906        5.9261286691  MEMB      129             0.0000000000
     15417       129  POPC      C314           58.1648773187      -25.4131673126        4.0468563542  MEMB      129             0.0000000000
     15418       129  POPC      H14X           58.6620830101      -24.5511956100        4.5409332937  MEMB      129             0.0000000000
     15419       129  POPC      H14Y           57.0786554499      -25.4174736070        4.2801471984  MEMB      129             0.0000000000
     15420       129  POPC      C315           58.3012460809      -25.3948164771        2.5750375322  MEMB      129             0.0000000000
     15421       129  POPC      H15X           57.7903984490      -26.2669792733        2.1138582026  MEMB      129             0.0000000000
     15422       129  POPC      H15Y           59.3833805906      -25.5393771860        2.3691061630  MEMB      129             0.0000000000
     15423       129  POPC      C316           57.7257335188      -24.1377762160        1.8792350401  MEMB      129             0.0000000000
     15424       129  POPC      H16X           58.0473004898      -24.2271592554        0.8195533691  MEMB      129             0.0000000000
     15425       129  POPC      H16Y           58.2324483135      -23.2566853937        2.3278329752  MEMB      129             0.0000000000
     15426       129  POPC      H16Z           56.6440146187      -23.9203952632        2.0094310202  MEMB      129             0.0000000000
     15427       130  POPC      N              40.6094165612      -45.2770543179       20.9694137445  MEMB      130             0.0000000000
     15428       130  POPC      C12            41.4724678937      -45.3852117078       19.7547486494  MEMB      130             0.0000000000
     15429       130  POPC      H12A           42.2699991493      -46.0943171797       19.9206202795  MEMB      130             0.0000000000
     15430       130  POPC      H12B           41.9328504344      -44.4298897994       19.5502785958  MEMB      130             0.0000000000
     15431       130  POPC      C13            41.5443463477      -44.8201454053       22.0850919572  MEMB      130             0.0000000000
     15432       130  POPC      H13A           40.9964098712      -44.6964565888       23.0075161257  MEMB      130             0.0000000000
     15433       130  POPC      H13B           42.2800636399      -45.5977964379       22.2278464269  MEMB      130             0.0000000000
     15434       130  POPC      H13C           42.0706144778      -43.9006527670       21.8753887906  MEMB      130             0.0000000000
     15435       130  POPC      C14            39.5076586019      -44.2980540260       20.8265909646  MEMB      130             0.0000000000
     15436       130  POPC      H14A           39.0929744407      -44.1221092078       21.8081612963  MEMB      130             0.0000000000
     15437       130  POPC      H14B           39.9006625631      -43.3343736805       20.5380285062  MEMB      130             0.0000000000
     15438       130  POPC      H14C           38.8285948589      -44.5672376237       20.0310957291  MEMB      130             0.0000000000
     15439       130  POPC      C15            40.0008602409      -46.6715326813       21.2781982951  MEMB      130             0.0000000000
     15440       130  POPC      H15A           39.2822309399      -46.8549583819       20.4931332416  MEMB      130             0.0000000000
     15441       130  POPC      H15B           39.6313386757      -46.6473436772       22.2927269983  MEMB      130             0.0000000000
     15442       130  POPC      H15C           40.7433496758      -47.4405393844       21.4322699964  MEMB      130             0.0000000000
     15443       130  POPC      C11            40.8046554091      -45.8520766055       18.4218737221  MEMB      130             0.0000000000
     15444       130  POPC      H11A           41.6793725696      -45.8449995691       17.7369351053  MEMB      130             0.0000000000
     15445       130  POPC      H11B           40.0454506365      -45.1084556702       18.0979030246  MEMB      130             0.0000000000
     15446       130  POPC      P              39.8682308357      -47.7978244711       17.0714289174  MEMB      130             0.0000000000
     15447       130  POPC      O13            39.1096552649      -46.8364597409       16.2745409602  MEMB      130             0.0000000000
     15448       130  POPC      O14            39.2181415682      -49.0793656715       17.4191208506  MEMB      130             0.0000000000
     15449       130  POPC      O12            40.3042648114      -47.1515515357       18.4876719727  MEMB      130             0.0000000000
     15450       130  POPC      O11            41.2973544674      -48.1530001327       16.4113199339  MEMB      130             0.0000000000
     15451       130  POPC      C1             42.2469129782      -48.9136544855       17.1093555110  MEMB      130             0.0000000000
     15452       130  POPC      HA             41.9314027984      -49.9401797084       17.3939961461  MEMB      130             0.0000000000
     15453       130  POPC      HB             42.4005419762      -48.4529977412       18.1086124637  MEMB      130             0.0000000000
     15454       130  POPC      C2             43.6569020532      -48.9789779089       16.4001127880  MEMB      130             0.0000000000
     15455       130  POPC      HS             44.4853674955      -49.3694532683       17.0289967665  MEMB      130             0.0000000000
     15456       130  POPC      O21            44.0212301642      -47.6187430833       15.9764738349  MEMB      130             0.0000000000
     15457       130  POPC      C21            44.2979775050      -46.7443210497       16.8587607031  MEMB      130             0.0000000000
     15458       130  POPC      O22            44.4693704319      -46.9014784112       18.0450429783  MEMB      130             0.0000000000
     15459       130  POPC      C22            44.3292745992      -45.3708218345       16.2044194687  MEMB      130             0.0000000000
     15460       130  POPC      H2R            45.3391457322      -44.9554262299       16.4091821381  MEMB      130             0.0000000000
     15461       130  POPC      H2S            43.5736479772      -44.6221465534       16.5250978550  MEMB      130             0.0000000000
     15462       130  POPC      C3             43.5075472779      -49.8618437776       15.1716953929  MEMB      130             0.0000000000
     15463       130  POPC      HX             43.4704737808      -50.9336168545       15.4619520931  MEMB      130             0.0000000000
     15464       130  POPC      HY             44.3935145258      -49.7551192132       14.5098850031  MEMB      130             0.0000000000
     15465       130  POPC      O31            42.2811882455      -49.6058119367       14.4452318526  MEMB      130             0.0000000000
     15466       130  POPC      C31            41.7927643857      -50.6180733678       13.6195000606  MEMB      130             0.0000000000
     15467       130  POPC      O32            42.3239472899      -51.6810945658       13.4322178075  MEMB      130             0.0000000000
     15468       130  POPC      C32            40.3346025837      -50.2169850760       13.2997406391  MEMB      130             0.0000000000
     15469       130  POPC      H2X            40.0999925540      -49.1719795673       13.5951087347  MEMB      130             0.0000000000
     15470       130  POPC      H2Y            39.6486983031      -50.8399856162       13.9127062567  MEMB      130             0.0000000000
     15471       130  POPC      C23            44.0721943694      -45.4581510637       14.6810327841  MEMB      130             0.0000000000
     15472       130  POPC      H3R            44.7953711067      -46.2016691025       14.2828904217  MEMB      130             0.0000000000
     15473       130  POPC      H3S            44.3660479387      -44.4672149550       14.2735814471  MEMB      130             0.0000000000
     15474       130  POPC      C24            42.6224371488      -45.7784497910       14.2301097615  MEMB      130             0.0000000000
     15475       130  POPC      H4R            41.9624291233      -45.2182753649       14.9264681169  MEMB      130             0.0000000000
     15476       130  POPC      H4S            42.4975133518      -46.8803169683       14.2979599428  MEMB      130             0.0000000000
     15477       130  POPC      C25            42.2310698285      -45.3299584276       12.8252007128  MEMB      130             0.0000000000
     15478       130  POPC      H5R            42.9479998164      -45.7513333063       12.0884679055  MEMB      130             0.0000000000
     15479       130  POPC      H5S            42.3675566130      -44.2311200327       12.7343890468  MEMB      130             0.0000000000
     15480       130  POPC      C26            40.7875474553      -45.5512112948       12.4121576862  MEMB      130             0.0000000000
     15481       130  POPC      H6R            40.1373848267      -45.0913900889       13.1868663051  MEMB      130             0.0000000000
     15482       130  POPC      H6S            40.5279919868      -46.6304455835       12.3651976268  MEMB      130             0.0000000000
     15483       130  POPC      C27            40.3357885029      -44.8692607921       11.0778477754  MEMB      130             0.0000000000
     15484       130  POPC      H7R            40.9892429213      -45.3166462103       10.2986403721  MEMB      130             0.0000000000
     15485       130  POPC      H7S            40.5772687556      -43.7861506074       11.1315188243  MEMB      130             0.0000000000
     15486       130  POPC      C28            38.8369925218      -45.1236130670       10.6876288646  MEMB      130             0.0000000000
     15487       130  POPC      H8R            38.5269493116      -44.4060979159        9.8980937846  MEMB      130             0.0000000000
     15488       130  POPC      H8S            38.4263830174      -44.6242312954       11.5911436651  MEMB      130             0.0000000000
     15489       130  POPC      C29            38.2719189011      -46.5180742752       10.4225900617  MEMB      130             0.0000000000
     15490       130  POPC      H91            37.9479228332      -47.1116459726       11.2901721140  MEMB      130             0.0000000000
     15491       130  POPC      C210           37.8964062344      -46.8773223355        9.2080179521  MEMB      130             0.0000000000
     15492       130  POPC      H101           37.3993186309      -47.8585838474        9.2134656894  MEMB      130             0.0000000000
     15493       130  POPC      C211           37.8838778868      -46.1321392128        7.8594826078  MEMB      130             0.0000000000
     15494       130  POPC      H11R           37.9233791287      -45.0308598400        8.0007063568  MEMB      130             0.0000000000
     15495       130  POPC      H11S           36.8508418844      -46.1953205123        7.4555443388  MEMB      130             0.0000000000
     15496       130  POPC      C212           38.8967266541      -46.5698392635        6.7714927238  MEMB      130             0.0000000000
     15497       130  POPC      H12R           39.9629074110      -46.5051918093        7.0771076790  MEMB      130             0.0000000000
     15498       130  POPC      H12S           38.7160921439      -45.8383248485        5.9550497505  MEMB      130             0.0000000000
     15499       130  POPC      C213           38.6299530566      -48.0492460499        6.2665195200  MEMB      130             0.0000000000
     15500       130  POPC      H13R           37.5648165039      -48.0230123383        5.9516909260  MEMB      130             0.0000000000
     15501       130  POPC      H13S           38.6841474910      -48.7749763963        7.1059831519  MEMB      130             0.0000000000
     15502       130  POPC      C214           39.4032457340      -48.4164393343        5.0763606793  MEMB      130             0.0000000000
     15503       130  POPC      H14R           40.4586618937      -48.5251642012        5.4059009866  MEMB      130             0.0000000000
     15504       130  POPC      H14S           39.3038467170      -47.7209771537        4.2156786830  MEMB      130             0.0000000000
     15505       130  POPC      C215           39.0882414108      -49.8143423769        4.4713949385  MEMB      130             0.0000000000
     15506       130  POPC      H15R           38.0420244993      -50.1248816204        4.6795220242  MEMB      130             0.0000000000
     15507       130  POPC      H15S           39.7271797467      -50.4977492975        5.0705895818  MEMB      130             0.0000000000
     15508       130  POPC      C216           39.3110539512      -49.8866322795        2.9828441721  MEMB      130             0.0000000000
     15509       130  POPC      H16R           40.2120570304      -49.3064003565        2.6898503290  MEMB      130             0.0000000000
     15510       130  POPC      H16S           38.4218559545      -49.3623013451        2.5720832132  MEMB      130             0.0000000000
     15511       130  POPC      C217           39.4044137824      -51.3188063113        2.4123023496  MEMB      130             0.0000000000
     15512       130  POPC      H17R           38.5307068506      -51.9465999194        2.6894898658  MEMB      130             0.0000000000
     15513       130  POPC      H17S           40.3999971304      -51.6738636000        2.7544570896  MEMB      130             0.0000000000
     15514       130  POPC      C218           39.4246616258      -51.2904514564        0.8512359039  MEMB      130             0.0000000000
     15515       130  POPC      H18R           39.6470667279      -52.3227992620        0.5061068200  MEMB      130             0.0000000000
     15516       130  POPC      H18S           40.3447473424      -50.7549227502        0.5334742292  MEMB      130             0.0000000000
     15517       130  POPC      H18T           38.4314161827      -50.9226455318        0.5158201940  MEMB      130             0.0000000000
     15518       130  POPC      C33            40.1043205585      -50.5437258193       11.7560602041  MEMB      130             0.0000000000
     15519       130  POPC      H3X            38.9986726363      -50.5097722620       11.6525674705  MEMB      130             0.0000000000
     15520       130  POPC      H3Y            40.3226252640      -51.6083783062       11.5254543207  MEMB      130             0.0000000000
     15521       130  POPC      C34            40.7899064398      -49.5531374111       10.7877313099  MEMB      130             0.0000000000
     15522       130  POPC      H4X            41.8100579885      -49.3364608577       11.1706974576  MEMB      130             0.0000000000
     15523       130  POPC      H4Y            40.1687467864      -48.6356823226       10.7055250220  MEMB      130             0.0000000000
     15524       130  POPC      C35            40.8205286634      -50.0622219280        9.3491745917  MEMB      130             0.0000000000
     15525       130  POPC      H5X            39.7868266631      -50.1369627848        8.9489310057  MEMB      130             0.0000000000
     15526       130  POPC      H5Y            41.2965458575      -51.0653184472        9.3101096169  MEMB      130             0.0000000000
     15527       130  POPC      C36            41.5510384515      -49.1419526107        8.3740943470  MEMB      130             0.0000000000
     15528       130  POPC      H6X            41.0675379332      -48.1417042343        8.3812563166  MEMB      130             0.0000000000
     15529       130  POPC      H6Y            41.5585277772      -49.6390624091        7.3805420704  MEMB      130             0.0000000000
     15530       130  POPC      C37            43.0532251597      -48.8872542244        8.7679087916  MEMB      130             0.0000000000
     15531       130  POPC      H7X            43.5388964013      -49.8791760118        8.8884704547  MEMB      130             0.0000000000
     15532       130  POPC      H7Y            43.0630039198      -48.4500399867        9.7892154327  MEMB      130             0.0000000000
     15533       130  POPC      C38            43.7921692906      -47.9845259843        7.8083074409  MEMB      130             0.0000000000
     15534       130  POPC      H8X            43.6109131270      -48.4397113663        6.8111748713  MEMB      130             0.0000000000
     15535       130  POPC      H8Y            44.8899146477      -48.0565470709        7.9635152115  MEMB      130             0.0000000000
     15536       130  POPC      C39            43.4644931524      -46.5330187581        7.8896948904  MEMB      130             0.0000000000
     15537       130  POPC      H9X            43.6553874520      -46.1666609494        8.9210351103  MEMB      130             0.0000000000
     15538       130  POPC      H9Y            42.3647918635      -46.4564593277        7.7514329562  MEMB      130             0.0000000000
     15539       130  POPC      C310           44.2259735542      -45.5543866614        6.9458396988  MEMB      130             0.0000000000
     15540       130  POPC      H10X           45.3205205188      -45.7422446060        6.9774213922  MEMB      130             0.0000000000
     15541       130  POPC      H10Y           44.1541214945      -44.5486235142        7.4123149039  MEMB      130             0.0000000000
     15542       130  POPC      C311           43.6572993994      -45.3995624654        5.4819310471  MEMB      130             0.0000000000
     15543       130  POPC      H11X           43.6621419754      -46.4155115927        5.0323249100  MEMB      130             0.0000000000
     15544       130  POPC      H11Y           44.3233264505      -44.6647017805        4.9812221771  MEMB      130             0.0000000000
     15545       130  POPC      C312           42.2408975262      -44.8509529448        5.2692523801  MEMB      130             0.0000000000
     15546       130  POPC      H12X           42.0595059371      -43.8168708766        5.6326975580  MEMB      130             0.0000000000
     15547       130  POPC      H12Y           41.4133276105      -45.5192737077        5.5898710049  MEMB      130             0.0000000000
     15548       130  POPC      C313           41.9085628295      -44.8703336712        3.7228422606  MEMB      130             0.0000000000
     15549       130  POPC      H13X           42.0988005217      -45.9197204335        3.4115257585  MEMB      130             0.0000000000
     15550       130  POPC      H13Y           42.6754709693      -44.2245107076        3.2442131564  MEMB      130             0.0000000000
     15551       130  POPC      C314           40.4093947915      -44.5229854775        3.4445008339  MEMB      130             0.0000000000
     15552       130  POPC      H14X           40.2452134911      -43.4538232285        3.6979913459  MEMB      130             0.0000000000
     15553       130  POPC      H14Y           39.7933989194      -45.1428738317        4.1305092844  MEMB      130             0.0000000000
     15554       130  POPC      C315           39.9283327799      -44.9093083693        1.9865498537  MEMB      130             0.0000000000
     15555       130  POPC      H15X           40.4534258057      -44.2000676471        1.3115862534  MEMB      130             0.0000000000
     15556       130  POPC      H15Y           38.8667976630      -44.5855335928        1.9352254928  MEMB      130             0.0000000000
     15557       130  POPC      C316           40.1608742299      -46.3079480622        1.5979759583  MEMB      130             0.0000000000
     15558       130  POPC      H16X           39.7725574116      -46.4667506214        0.5692333724  MEMB      130             0.0000000000
     15559       130  POPC      H16Y           39.8001144040      -47.1369166473        2.2437201320  MEMB      130             0.0000000000
     15560       130  POPC      H16Z           41.2624870164      -46.4308522856        1.5227097431  MEMB      130             0.0000000000
     15561       131  POPC      N             -32.0081584097       52.6291058528       20.6094145214  MEMB      131             0.0000000000
     15562       131  POPC      C12           -31.9936950941       51.1341614105       20.7303563292  MEMB      131             0.0000000000
     15563       131  POPC      H12A          -32.3870892926       50.9428210294       21.7177923237  MEMB      131             0.0000000000
     15564       131  POPC      H12B          -31.0055599154       50.7302095649       20.5666133978  MEMB      131             0.0000000000
     15565       131  POPC      C13           -33.4510127780       53.1119690521       20.6334219034  MEMB      131             0.0000000000
     15566       131  POPC      H13A          -33.9227896229       52.8963818337       21.5807068813  MEMB      131             0.0000000000
     15567       131  POPC      H13B          -33.3643158843       54.1679654487       20.4242441300  MEMB      131             0.0000000000
     15568       131  POPC      H13C          -34.1288030989       52.7297557978       19.8844804110  MEMB      131             0.0000000000
     15569       131  POPC      C14           -31.2365599758       53.2538476095       21.6939771241  MEMB      131             0.0000000000
     15570       131  POPC      H14A          -30.2461767008       52.8331859231       21.7866303875  MEMB      131             0.0000000000
     15571       131  POPC      H14B          -31.1327793059       54.3074389744       21.4804951876  MEMB      131             0.0000000000
     15572       131  POPC      H14C          -31.7602942649       53.1208840939       22.6290830750  MEMB      131             0.0000000000
     15573       131  POPC      C15           -31.4692013665       52.8845573826       19.2448234654  MEMB      131             0.0000000000
     15574       131  POPC      H15A          -31.9558436297       52.2488908039       18.5199044954  MEMB      131             0.0000000000
     15575       131  POPC      H15B          -30.3971324983       52.7539234240       19.2465635351  MEMB      131             0.0000000000
     15576       131  POPC      H15C          -31.6050079212       53.9494889552       19.1270226460  MEMB      131             0.0000000000
     15577       131  POPC      C11           -32.9104368697       50.1937918691       19.8772960359  MEMB      131             0.0000000000
     15578       131  POPC      H11A          -33.8997151851       50.1529337828       20.3812603634  MEMB      131             0.0000000000
     15579       131  POPC      H11B          -32.5672351338       49.1383710341       19.9284854848  MEMB      131             0.0000000000
     15580       131  POPC      P             -33.1582482336       49.8546476561       17.1918678848  MEMB      131             0.0000000000
     15581       131  POPC      O13           -33.9554673793       48.6504880120       17.4878752197  MEMB      131             0.0000000000
     15582       131  POPC      O14           -31.7413616023       49.5999058864       16.8015765315  MEMB      131             0.0000000000
     15583       131  POPC      O12           -33.2292268525       50.7184892880       18.5294626650  MEMB      131             0.0000000000
     15584       131  POPC      O11           -33.8470479397       50.7874591795       16.1999283166  MEMB      131             0.0000000000
     15585       131  POPC      C1            -34.9729045180       51.5819342955       16.5045478023  MEMB      131             0.0000000000
     15586       131  POPC      HA            -34.6552086843       52.4249547953       17.1547069283  MEMB      131             0.0000000000
     15587       131  POPC      HB            -35.7050374397       51.0362484316       17.1374214935  MEMB      131             0.0000000000
     15588       131  POPC      C2            -35.6028910208       52.2279684575       15.1874748991  MEMB      131             0.0000000000
     15589       131  POPC      HS            -36.6860277436       52.3898821953       15.3743427962  MEMB      131             0.0000000000
     15590       131  POPC      O21           -35.4978882745       51.2823890317       14.1301415624  MEMB      131             0.0000000000
     15591       131  POPC      C21           -36.1486573757       50.0735743251       14.2611083709  MEMB      131             0.0000000000
     15592       131  POPC      O22           -36.7577507052       49.7076248112       15.2019618796  MEMB      131             0.0000000000
     15593       131  POPC      C22           -36.0491096031       49.2757248534       12.9470708202  MEMB      131             0.0000000000
     15594       131  POPC      H2R           -37.0194105684       49.0256470366       12.4671776804  MEMB      131             0.0000000000
     15595       131  POPC      H2S           -35.5301556191       48.3503000645       13.2766116949  MEMB      131             0.0000000000
     15596       131  POPC      C3            -34.9604453541       53.5534662561       14.7069503908  MEMB      131             0.0000000000
     15597       131  POPC      HX            -34.8526745637       54.3924694790       15.4272142356  MEMB      131             0.0000000000
     15598       131  POPC      HY            -35.3217685865       53.9315715866       13.7267449321  MEMB      131             0.0000000000
     15599       131  POPC      O31           -33.5324055932       53.2283956114       14.4235561248  MEMB      131             0.0000000000
     15600       131  POPC      C31           -32.5540643212       53.4254404636       15.3006049996  MEMB      131             0.0000000000
     15601       131  POPC      O32           -32.6740166789       54.0510685734       16.3220113205  MEMB      131             0.0000000000
     15602       131  POPC      C32           -31.2088519892       52.7848190009       14.8145798381  MEMB      131             0.0000000000
     15603       131  POPC      H2X           -31.0817939246       51.8133437882       15.3384244817  MEMB      131             0.0000000000
     15604       131  POPC      H2Y           -30.3953017492       53.4892661639       15.0906440052  MEMB      131             0.0000000000
     15605       131  POPC      C23           -35.1208898818       49.9458934825       11.8188609599  MEMB      131             0.0000000000
     15606       131  POPC      H3R           -34.9509857526       49.2775314228       10.9478004645  MEMB      131             0.0000000000
     15607       131  POPC      H3S           -34.1067609963       50.0916133741       12.2485460421  MEMB      131             0.0000000000
     15608       131  POPC      C24           -35.6407415207       51.2955814413       11.1430642175  MEMB      131             0.0000000000
     15609       131  POPC      H4R           -35.9373755193       52.0956804386       11.8545213575  MEMB      131             0.0000000000
     15610       131  POPC      H4S           -36.5727048897       50.9850260071       10.6241034148  MEMB      131             0.0000000000
     15611       131  POPC      C25           -34.7019014037       52.0414318433       10.1527788467  MEMB      131             0.0000000000
     15612       131  POPC      H5R           -34.3493775020       51.3903674456        9.3244291123  MEMB      131             0.0000000000
     15613       131  POPC      H5S           -33.8180885332       52.3795611218       10.7349002051  MEMB      131             0.0000000000
     15614       131  POPC      C26           -35.3562999287       53.3200395890        9.5109992374  MEMB      131             0.0000000000
     15615       131  POPC      H6R           -34.6022600328       53.6488521220        8.7642549663  MEMB      131             0.0000000000
     15616       131  POPC      H6S           -35.3002375622       53.9759687911       10.4059485973  MEMB      131             0.0000000000
     15617       131  POPC      C27           -36.7923912920       53.1954021352        8.9364624120  MEMB      131             0.0000000000
     15618       131  POPC      H7R           -37.0993827379       54.2002891797        8.5755198662  MEMB      131             0.0000000000
     15619       131  POPC      H7S           -37.4771369887       52.9241672853        9.7682528212  MEMB      131             0.0000000000
     15620       131  POPC      C28           -36.9867692999       52.1401932060        7.8232276557  MEMB      131             0.0000000000
     15621       131  POPC      H8R           -38.0531207547       52.3346560266        7.5795089814  MEMB      131             0.0000000000
     15622       131  POPC      H8S           -36.8739282489       51.1241474041        8.2582435164  MEMB      131             0.0000000000
     15623       131  POPC      C29           -36.0998484515       52.2834592724        6.5965970556  MEMB      131             0.0000000000
     15624       131  POPC      H91           -36.0929222373       53.2761672144        6.1228003113  MEMB      131             0.0000000000
     15625       131  POPC      C210          -35.4045667394       51.3740486027        5.9055818384  MEMB      131             0.0000000000
     15626       131  POPC      H101          -34.9328488530       51.6552217554        4.9524688046  MEMB      131             0.0000000000
     15627       131  POPC      C211          -35.3266165909       49.8841549258        6.2221483053  MEMB      131             0.0000000000
     15628       131  POPC      H11R          -35.0685400529       49.7482564770        7.2941782411  MEMB      131             0.0000000000
     15629       131  POPC      H11S          -34.4182152008       49.5024456882        5.7088978635  MEMB      131             0.0000000000
     15630       131  POPC      C212          -36.6085399949       49.1158751660        5.9170260967  MEMB      131             0.0000000000
     15631       131  POPC      H12R          -37.4188247737       49.4310983546        6.6086859026  MEMB      131             0.0000000000
     15632       131  POPC      H12S          -36.3935514715       48.0777886293        6.2494066448  MEMB      131             0.0000000000
     15633       131  POPC      C213          -37.3948217043       49.2953514867        4.5623342096  MEMB      131             0.0000000000
     15634       131  POPC      H13R          -37.5545894210       50.3940193894        4.5208102247  MEMB      131             0.0000000000
     15635       131  POPC      H13S          -38.3464494213       48.7523584489        4.7464096652  MEMB      131             0.0000000000
     15636       131  POPC      C214          -36.6317570077       48.6685815590        3.3952892507  MEMB      131             0.0000000000
     15637       131  POPC      H14R          -36.4148485300       47.6119611022        3.6614194743  MEMB      131             0.0000000000
     15638       131  POPC      H14S          -35.6816697910       49.2308484441        3.5198344408  MEMB      131             0.0000000000
     15639       131  POPC      C215          -37.2488970484       48.8542780791        2.0020209513  MEMB      131             0.0000000000
     15640       131  POPC      H15R          -38.2571686058       48.3928567166        1.9327418901  MEMB      131             0.0000000000
     15641       131  POPC      H15S          -36.5522653262       48.4086739159        1.2600900624  MEMB      131             0.0000000000
     15642       131  POPC      C216          -37.4469563011       50.3112101119        1.6233518962  MEMB      131             0.0000000000
     15643       131  POPC      H16R          -36.4636767820       50.8196067241        1.7183001162  MEMB      131             0.0000000000
     15644       131  POPC      H16S          -38.0944058489       50.7327013773        2.4217727156  MEMB      131             0.0000000000
     15645       131  POPC      C217          -38.0399400747       50.6613535206        0.2227940606  MEMB      131             0.0000000000
     15646       131  POPC      H17R          -39.0367570227       50.2228178295        0.0028779611  MEMB      131             0.0000000000
     15647       131  POPC      H17S          -37.4326725099       50.2042063978       -0.5874912852  MEMB      131             0.0000000000
     15648       131  POPC      C218          -38.2165597736       52.1877100249       -0.0312136246  MEMB      131             0.0000000000
     15649       131  POPC      H18R          -38.9198785659       52.5649287570        0.7416822844  MEMB      131             0.0000000000
     15650       131  POPC      H18S          -38.6005791210       52.3477490324       -1.0613784595  MEMB      131             0.0000000000
     15651       131  POPC      H18T          -37.2772001085       52.7684189312        0.0900366721  MEMB      131             0.0000000000
     15652       131  POPC      C33           -31.2961506604       52.5053900875       13.2217183025  MEMB      131             0.0000000000
     15653       131  POPC      H3X           -31.2401092783       53.4569235940       12.6509610173  MEMB      131             0.0000000000
     15654       131  POPC      H3Y           -32.2870530771       52.0171584929       13.1031288980  MEMB      131             0.0000000000
     15655       131  POPC      C34           -30.1455223598       51.5871751181       12.7757367121  MEMB      131             0.0000000000
     15656       131  POPC      H4X           -30.0043117969       50.7046793542       13.4357229513  MEMB      131             0.0000000000
     15657       131  POPC      H4Y           -29.1957575327       52.1549127571       12.8754433886  MEMB      131             0.0000000000
     15658       131  POPC      C35           -30.3035162505       50.9907866113       11.3578049257  MEMB      131             0.0000000000
     15659       131  POPC      H5X           -31.1444395266       50.2714947379       11.4567406790  MEMB      131             0.0000000000
     15660       131  POPC      H5Y           -29.3393687884       50.6186846149       10.9500296698  MEMB      131             0.0000000000
     15661       131  POPC      C36           -30.7713085386       52.1266053814       10.3519396657  MEMB      131             0.0000000000
     15662       131  POPC      H6X           -30.1128680079       52.9798318544       10.6217200443  MEMB      131             0.0000000000
     15663       131  POPC      H6Y           -31.8240016044       52.4053007406       10.5721381131  MEMB      131             0.0000000000
     15664       131  POPC      C37           -30.5631940816       51.7776902751        8.9041239481  MEMB      131             0.0000000000
     15665       131  POPC      H7X           -29.4834981038       51.5615736864        8.7562341129  MEMB      131             0.0000000000
     15666       131  POPC      H7Y           -30.6895329094       52.6369898751        8.2113299158  MEMB      131             0.0000000000
     15667       131  POPC      C38           -31.3352486355       50.6771028664        8.3258011517  MEMB      131             0.0000000000
     15668       131  POPC      H8X           -32.3983206574       50.9988362592        8.3520014971  MEMB      131             0.0000000000
     15669       131  POPC      H8Y           -31.2225036196       49.8101361142        9.0113507684  MEMB      131             0.0000000000
     15670       131  POPC      C39           -31.0805179166       50.0680064819        6.9573063602  MEMB      131             0.0000000000
     15671       131  POPC      H9X           -31.8943811551       49.3527718915        6.7115681871  MEMB      131             0.0000000000
     15672       131  POPC      H9Y           -30.1407243130       49.4801702376        7.0318574898  MEMB      131             0.0000000000
     15673       131  POPC      C310          -31.0832755816       51.0529293440        5.7580506702  MEMB      131             0.0000000000
     15674       131  POPC      H10X          -30.0600276148       51.4793040124        5.6839606206  MEMB      131             0.0000000000
     15675       131  POPC      H10Y          -31.7209757511       51.9405200190        5.9576553549  MEMB      131             0.0000000000
     15676       131  POPC      C311          -31.5714715534       50.4644619181        4.4662386320  MEMB      131             0.0000000000
     15677       131  POPC      H11X          -32.6344929895       50.1601969523        4.3579380929  MEMB      131             0.0000000000
     15678       131  POPC      H11Y          -31.0742315601       49.4785433924        4.3436086508  MEMB      131             0.0000000000
     15679       131  POPC      C312          -31.4361131600       51.4067107213        3.1843902686  MEMB      131             0.0000000000
     15680       131  POPC      H12X          -31.4078076823       50.8419961207        2.2280336743  MEMB      131             0.0000000000
     15681       131  POPC      H12Y          -30.4199429498       51.8337559973        3.3234997343  MEMB      131             0.0000000000
     15682       131  POPC      C313          -32.5403332971       52.4000427964        3.0084584812  MEMB      131             0.0000000000
     15683       131  POPC      H13X          -33.0879714028       52.7991703761        3.8888615540  MEMB      131             0.0000000000
     15684       131  POPC      H13Y          -33.3087628479       51.7760648039        2.5039891338  MEMB      131             0.0000000000
     15685       131  POPC      C314          -32.2508568748       53.5518875574        2.0046778776  MEMB      131             0.0000000000
     15686       131  POPC      H14X          -31.6948340812       53.0266095240        1.1989215621  MEMB      131             0.0000000000
     15687       131  POPC      H14Y          -31.5773506774       54.2799318112        2.5053384551  MEMB      131             0.0000000000
     15688       131  POPC      C315          -33.5180913973       54.2756971111        1.3790703291  MEMB      131             0.0000000000
     15689       131  POPC      H15X          -34.0039019499       54.9518816013        2.1146544745  MEMB      131             0.0000000000
     15690       131  POPC      H15Y          -34.2135046867       53.4211752408        1.2358440769  MEMB      131             0.0000000000
     15691       131  POPC      C316          -33.2675343734       54.7903723192       -0.0337203652  MEMB      131             0.0000000000
     15692       131  POPC      H16X          -34.1751242782       55.0909018451       -0.5996568497  MEMB      131             0.0000000000
     15693       131  POPC      H16Y          -32.6945700307       53.9790797485       -0.5315533386  MEMB      131             0.0000000000
     15694       131  POPC      H16Z          -32.5852495690       55.6670802320       -0.0475662326  MEMB      131             0.0000000000
     15695       132  POPC      N             -49.6998929763      -35.7786610482       18.4524165692  MEMB      132             0.0000000000
     15696       132  POPC      C12           -48.8611771248      -36.4624671659       19.5163784761  MEMB      132             0.0000000000
     15697       132  POPC      H12A          -48.4437510439      -35.6328893803       20.0677005423  MEMB      132             0.0000000000
     15698       132  POPC      H12B          -47.9769289289      -36.9599165053       19.1461765983  MEMB      132             0.0000000000
     15699       132  POPC      C13           -49.5997834946      -36.6642040455       17.1904425857  MEMB      132             0.0000000000
     15700       132  POPC      H13A          -48.6743701034      -37.2111897282       17.2944465020  MEMB      132             0.0000000000
     15701       132  POPC      H13B          -50.4396737850      -37.3292836487       17.0538649296  MEMB      132             0.0000000000
     15702       132  POPC      H13C          -49.5969677088      -35.9759064850       16.3581936983  MEMB      132             0.0000000000
     15703       132  POPC      C14           -51.1668335090      -35.6122369677       18.8570387354  MEMB      132             0.0000000000
     15704       132  POPC      H14A          -51.7866634547      -35.3897528018       18.0010530094  MEMB      132             0.0000000000
     15705       132  POPC      H14B          -51.5101186192      -36.5827062871       19.1837566711  MEMB      132             0.0000000000
     15706       132  POPC      H14C          -51.2209663783      -34.9015635041       19.6684650494  MEMB      132             0.0000000000
     15707       132  POPC      C15           -49.1523958574      -34.4401817710       18.1062250085  MEMB      132             0.0000000000
     15708       132  POPC      H15A          -48.3956753216      -34.5291852602       17.3408149895  MEMB      132             0.0000000000
     15709       132  POPC      H15B          -48.6876566355      -34.0053121341       18.9787534987  MEMB      132             0.0000000000
     15710       132  POPC      H15C          -49.9178669296      -33.7890829367       17.7105938857  MEMB      132             0.0000000000
     15711       132  POPC      C11           -49.4908309925      -37.5531197697       20.4388363703  MEMB      132             0.0000000000
     15712       132  POPC      H11A          -50.4081006909      -37.1368147774       20.9074805837  MEMB      132             0.0000000000
     15713       132  POPC      H11B          -48.6866912772      -37.8300227920       21.1536825751  MEMB      132             0.0000000000
     15714       132  POPC      P             -48.9864935230      -39.8934540996       19.3404179261  MEMB      132             0.0000000000
     15715       132  POPC      O13           -48.8526005176      -40.7490905065       20.5582552381  MEMB      132             0.0000000000
     15716       132  POPC      O14           -47.7883432660      -39.4130798957       18.5833271554  MEMB      132             0.0000000000
     15717       132  POPC      O12           -49.9377469369      -38.6799101462       19.7049630757  MEMB      132             0.0000000000
     15718       132  POPC      O11           -49.7389649359      -40.8005632805       18.2516989119  MEMB      132             0.0000000000
     15719       132  POPC      C1            -50.9240300337      -40.2612869181       17.7323860439  MEMB      132             0.0000000000
     15720       132  POPC      HA            -50.6844947850      -39.2856436310       17.2579767669  MEMB      132             0.0000000000
     15721       132  POPC      HB            -51.6440889573      -40.2021292766       18.5763862887  MEMB      132             0.0000000000
     15722       132  POPC      C2            -51.4878879907      -41.1055255001       16.6754852558  MEMB      132             0.0000000000
     15723       132  POPC      HS            -51.7965540021      -42.0352723526       17.1995244584  MEMB      132             0.0000000000
     15724       132  POPC      O21           -50.5324699181      -41.3088735383       15.5986699736  MEMB      132             0.0000000000
     15725       132  POPC      C21           -50.8587936575      -42.4164899350       14.8714230401  MEMB      132             0.0000000000
     15726       132  POPC      O22           -51.4083021324      -43.3768207736       15.3470915778  MEMB      132             0.0000000000
     15727       132  POPC      C22           -50.5064164338      -42.3670628848       13.3716172283  MEMB      132             0.0000000000
     15728       132  POPC      H2R           -49.7084113567      -43.1306657912       13.2515365606  MEMB      132             0.0000000000
     15729       132  POPC      H2S           -50.0389454942      -41.3886238289       13.1298552212  MEMB      132             0.0000000000
     15730       132  POPC      C3            -52.7237141512      -40.4117856469       16.0466865917  MEMB      132             0.0000000000
     15731       132  POPC      HX            -53.3852402329      -40.4181482773       16.9392468374  MEMB      132             0.0000000000
     15732       132  POPC      HY            -53.2369116253      -41.1121937270       15.3535933227  MEMB      132             0.0000000000
     15733       132  POPC      O31           -52.4220327948      -39.1545456419       15.4247122211  MEMB      132             0.0000000000
     15734       132  POPC      C31           -52.8040805583      -38.0066248538       16.0141758050  MEMB      132             0.0000000000
     15735       132  POPC      O32           -53.3393853071      -37.9171741271       17.0582982773  MEMB      132             0.0000000000
     15736       132  POPC      C32           -52.4888107211      -36.8107912100       15.1503231977  MEMB      132             0.0000000000
     15737       132  POPC      H2X           -51.8334788831      -36.0883990663       15.6823106036  MEMB      132             0.0000000000
     15738       132  POPC      H2Y           -53.4106965212      -36.2192548226       14.9644958771  MEMB      132             0.0000000000
     15739       132  POPC      C23           -51.7464628527      -42.5617633686       12.5022595081  MEMB      132             0.0000000000
     15740       132  POPC      H3R           -52.6476026854      -43.0589668526       12.9206574619  MEMB      132             0.0000000000
     15741       132  POPC      H3S           -51.3864859048      -43.0039102021       11.5487166053  MEMB      132             0.0000000000
     15742       132  POPC      C24           -52.3775476279      -41.2897142730       12.0390589322  MEMB      132             0.0000000000
     15743       132  POPC      H4R           -51.7389550495      -40.5072737412       11.5761259853  MEMB      132             0.0000000000
     15744       132  POPC      H4S           -52.8203284811      -40.7749632117       12.9184323649  MEMB      132             0.0000000000
     15745       132  POPC      C25           -53.5619402468      -41.4902848175       11.0707972809  MEMB      132             0.0000000000
     15746       132  POPC      H5R           -54.4274691507      -41.9855740890       11.5605623057  MEMB      132             0.0000000000
     15747       132  POPC      H5S           -53.1256142826      -42.0689789514       10.2287441474  MEMB      132             0.0000000000
     15748       132  POPC      C26           -53.9852136949      -40.1847869336       10.3300491234  MEMB      132             0.0000000000
     15749       132  POPC      H6R           -53.0115173795      -39.6625351920       10.2139048197  MEMB      132             0.0000000000
     15750       132  POPC      H6S           -54.6475153648      -39.5908285688       10.9955492831  MEMB      132             0.0000000000
     15751       132  POPC      C27           -54.5294366652      -40.3984704901        8.8758353703  MEMB      132             0.0000000000
     15752       132  POPC      H7R           -55.3546053038      -41.1419913839        8.9002207965  MEMB      132             0.0000000000
     15753       132  POPC      H7S           -53.6759305437      -40.8330427092        8.3128119367  MEMB      132             0.0000000000
     15754       132  POPC      C28           -55.2249207462      -39.1386019231        8.2306111731  MEMB      132             0.0000000000
     15755       132  POPC      H8R           -56.1632652103      -39.0128601913        8.8120050644  MEMB      132             0.0000000000
     15756       132  POPC      H8S           -55.5528611379      -39.3940191750        7.2003007621  MEMB      132             0.0000000000
     15757       132  POPC      C29           -54.2635898581      -37.9827331672        8.1395496641  MEMB      132             0.0000000000
     15758       132  POPC      H91           -53.8578578667      -37.8047197780        9.1463736772  MEMB      132             0.0000000000
     15759       132  POPC      C210          -53.9620709279      -37.2170020899        7.1614075032  MEMB      132             0.0000000000
     15760       132  POPC      H101          -53.2315997774      -36.4232007173        7.3765615160  MEMB      132             0.0000000000
     15761       132  POPC      C211          -54.4416998053      -37.2481548667        5.7391431880  MEMB      132             0.0000000000
     15762       132  POPC      H11R          -54.9724828141      -36.2858539326        5.5761480554  MEMB      132             0.0000000000
     15763       132  POPC      H11S          -55.0961802338      -38.0451752742        5.3259414209  MEMB      132             0.0000000000
     15764       132  POPC      C212          -53.1423293922      -37.2955980585        4.8077386894  MEMB      132             0.0000000000
     15765       132  POPC      H12R          -52.6998284645      -36.2768406360        4.7822999917  MEMB      132             0.0000000000
     15766       132  POPC      H12S          -53.3729471899      -37.5875488612        3.7608855228  MEMB      132             0.0000000000
     15767       132  POPC      C213          -52.0742887721      -38.3160648911        5.1516197274  MEMB      132             0.0000000000
     15768       132  POPC      H13R          -51.6590311300      -38.1006247751        6.1593240356  MEMB      132             0.0000000000
     15769       132  POPC      H13S          -51.2408102037      -38.1076896558        4.4471951984  MEMB      132             0.0000000000
     15770       132  POPC      C214          -52.5341445612      -39.7265625079        5.0183232122  MEMB      132             0.0000000000
     15771       132  POPC      H14R          -53.4140858289      -39.8783676274        5.6793674862  MEMB      132             0.0000000000
     15772       132  POPC      H14S          -51.7188284281      -40.3734319331        5.4070919141  MEMB      132             0.0000000000
     15773       132  POPC      C215          -52.8877049712      -40.1508580224        3.6254543054  MEMB      132             0.0000000000
     15774       132  POPC      H15R          -52.3696056369      -41.1038692236        3.3853218979  MEMB      132             0.0000000000
     15775       132  POPC      H15S          -52.4962086890      -39.4287971303        2.8773372303  MEMB      132             0.0000000000
     15776       132  POPC      C216          -54.4525723856      -40.3820786330        3.3639109103  MEMB      132             0.0000000000
     15777       132  POPC      H16R          -55.0778898881      -39.6443156448        3.9107243090  MEMB      132             0.0000000000
     15778       132  POPC      H16S          -54.7056766782      -41.3631829182        3.8196454598  MEMB      132             0.0000000000
     15779       132  POPC      C217          -54.7690183142      -40.4920814687        1.8271199998  MEMB      132             0.0000000000
     15780       132  POPC      H17R          -54.7634665562      -39.4743372605        1.3816008265  MEMB      132             0.0000000000
     15781       132  POPC      H17S          -55.7815093316      -40.9019756571        1.6242153793  MEMB      132             0.0000000000
     15782       132  POPC      C218          -53.9392304417      -41.3808326325        0.8057394574  MEMB      132             0.0000000000
     15783       132  POPC      H18R          -54.3192101576      -41.3792095372       -0.2382595887  MEMB      132             0.0000000000
     15784       132  POPC      H18S          -54.0051393181      -42.4219181521        1.1879942794  MEMB      132             0.0000000000
     15785       132  POPC      H18T          -52.8722420974      -41.0737983876        0.7659042457  MEMB      132             0.0000000000
     15786       132  POPC      C33           -52.1060178783      -37.2436612741       13.7516990246  MEMB      132             0.0000000000
     15787       132  POPC      H3X           -52.8211871643      -37.9058216879       13.2184097533  MEMB      132             0.0000000000
     15788       132  POPC      H3Y           -51.2040554031      -37.8568012701       13.9634628246  MEMB      132             0.0000000000
     15789       132  POPC      C34           -51.7135216225      -36.1150563665       12.8399277570  MEMB      132             0.0000000000
     15790       132  POPC      H4X           -51.2487745115      -35.2986026419       13.4329997274  MEMB      132             0.0000000000
     15791       132  POPC      H4Y           -52.6170288359      -35.7377336704       12.3149291660  MEMB      132             0.0000000000
     15792       132  POPC      C35           -50.5980033990      -36.3809064299       11.7962167262  MEMB      132             0.0000000000
     15793       132  POPC      H5X           -49.7042828529      -36.7676719075       12.3310035505  MEMB      132             0.0000000000
     15794       132  POPC      H5Y           -50.3663590477      -35.3515812106       11.4481484160  MEMB      132             0.0000000000
     15795       132  POPC      C36           -51.0638466079      -37.1958266402       10.6375828079  MEMB      132             0.0000000000
     15796       132  POPC      H6X           -51.6226832529      -36.4842173087        9.9928853657  MEMB      132             0.0000000000
     15797       132  POPC      H6Y           -51.8207944802      -37.8965447495       11.0503115632  MEMB      132             0.0000000000
     15798       132  POPC      C37           -49.9534686132      -37.9179369465        9.8977185774  MEMB      132             0.0000000000
     15799       132  POPC      H7X           -49.4138770927      -38.5378557639       10.6452897579  MEMB      132             0.0000000000
     15800       132  POPC      H7Y           -49.2118720547      -37.1576456138        9.5716621501  MEMB      132             0.0000000000
     15801       132  POPC      C38           -50.4635837350      -38.8095882613        8.7493715797  MEMB      132             0.0000000000
     15802       132  POPC      H8X           -51.1027662557      -38.2414505952        8.0401564248  MEMB      132             0.0000000000
     15803       132  POPC      H8Y           -51.2207904644      -39.4442889190        9.2574210260  MEMB      132             0.0000000000
     15804       132  POPC      C39           -49.3745005504      -39.6259156651        8.0553860295  MEMB      132             0.0000000000
     15805       132  POPC      H9X           -49.8209091906      -40.1793759351        7.2017335522  MEMB      132             0.0000000000
     15806       132  POPC      H9Y           -48.8925471148      -40.3518944031        8.7445865586  MEMB      132             0.0000000000
     15807       132  POPC      C310          -48.2506606686      -38.8221863893        7.3878434269  MEMB      132             0.0000000000
     15808       132  POPC      H10X          -47.5061957997      -39.5850166542        7.0745022063  MEMB      132             0.0000000000
     15809       132  POPC      H10Y          -47.8110926319      -38.2535114042        8.2350216690  MEMB      132             0.0000000000
     15810       132  POPC      C311          -48.5315606766      -37.8107159353        6.3165135306  MEMB      132             0.0000000000
     15811       132  POPC      H11X          -48.9814745478      -36.9872835503        6.9113731970  MEMB      132             0.0000000000
     15812       132  POPC      H11Y          -49.3903382714      -38.1311948342        5.6887275768  MEMB      132             0.0000000000
     15813       132  POPC      C312          -47.2233688928      -37.3604222990        5.6404351132  MEMB      132             0.0000000000
     15814       132  POPC      H12X          -46.5562000866      -38.1259276202        5.1896488315  MEMB      132             0.0000000000
     15815       132  POPC      H12Y          -46.5680835703      -36.9070152143        6.4146084268  MEMB      132             0.0000000000
     15816       132  POPC      C313          -47.4844772691      -36.3783716717        4.4255877270  MEMB      132             0.0000000000
     15817       132  POPC      H13X          -46.5870951157      -36.5821267326        3.8030837977  MEMB      132             0.0000000000
     15818       132  POPC      H13Y          -47.5049122321      -35.3500170866        4.8455756894  MEMB      132             0.0000000000
     15819       132  POPC      C314          -48.8171691043      -36.6586591755        3.6342697540  MEMB      132             0.0000000000
     15820       132  POPC      H14X          -49.6392524585      -36.5409324498        4.3722674939  MEMB      132             0.0000000000
     15821       132  POPC      H14Y          -48.8629847392      -37.6671573470        3.1704240509  MEMB      132             0.0000000000
     15822       132  POPC      C315          -48.9840767424      -35.6154408285        2.5838820760  MEMB      132             0.0000000000
     15823       132  POPC      H15X          -48.8678193662      -34.6232095739        3.0699705905  MEMB      132             0.0000000000
     15824       132  POPC      H15Y          -50.0195211405      -35.5792455689        2.1828008790  MEMB      132             0.0000000000
     15825       132  POPC      C316          -48.1006604110      -35.7167242864        1.3727078660  MEMB      132             0.0000000000
     15826       132  POPC      H16X          -47.0654179259      -35.4109399317        1.6355584702  MEMB      132             0.0000000000
     15827       132  POPC      H16Y          -48.4913612433      -34.9176982245        0.7069516748  MEMB      132             0.0000000000
     15828       132  POPC      H16Z          -48.0222701700      -36.6832717460        0.8305250814  MEMB      132             0.0000000000
     15829       133  POPC      N              30.8027801494       58.0052067054       20.6568122046  MEMB      133             0.0000000000
     15830       133  POPC      C12            29.5097136927       58.7401220405       20.5137665757  MEMB      133             0.0000000000
     15831       133  POPC      H12A           29.6750963967       59.7008161030       20.0488843094  MEMB      133             0.0000000000
     15832       133  POPC      H12B           29.1082053820       58.7154514914       21.5160551234  MEMB      133             0.0000000000
     15833       133  POPC      C13            31.5989393742       58.1128377176       19.4298579156  MEMB      133             0.0000000000
     15834       133  POPC      H13A           31.9230577001       59.1225315253       19.2252469088  MEMB      133             0.0000000000
     15835       133  POPC      H13B           32.4436585013       57.4566667588       19.5791532243  MEMB      133             0.0000000000
     15836       133  POPC      H13C           31.0121284533       57.7913696896       18.5820894242  MEMB      133             0.0000000000
     15837       133  POPC      C14            31.7089826887       58.7085976807       21.6911388134  MEMB      133             0.0000000000
     15838       133  POPC      H14A           31.4523178538       58.6428352591       22.7381336771  MEMB      133             0.0000000000
     15839       133  POPC      H14B           32.6878888873       58.2524754897       21.6813689542  MEMB      133             0.0000000000
     15840       133  POPC      H14C           31.9562750053       59.7123768507       21.3786103855  MEMB      133             0.0000000000
     15841       133  POPC      C15            30.6637755716       56.5825966177       21.0231203274  MEMB      133             0.0000000000
     15842       133  POPC      H15A           30.0655443193       56.0809591055       20.2768768167  MEMB      133             0.0000000000
     15843       133  POPC      H15B           30.0751939044       56.5956937849       21.9285483377  MEMB      133             0.0000000000
     15844       133  POPC      H15C           31.5412358682       55.9530213900       21.0132070746  MEMB      133             0.0000000000
     15845       133  POPC      C11            28.4190449075       58.1305757830       19.6060497081  MEMB      133             0.0000000000
     15846       133  POPC      H11A           27.8096272809       59.0457078806       19.4464743320  MEMB      133             0.0000000000
     15847       133  POPC      H11B           27.7899977370       57.3555290014       20.0938233606  MEMB      133             0.0000000000
     15848       133  POPC      P              28.0574579486       57.3937932023       17.2287597697  MEMB      133             0.0000000000
     15849       133  POPC      O13            26.7278339647       56.8676765405       17.6746829794  MEMB      133             0.0000000000
     15850       133  POPC      O14            28.8578282242       56.5633047055       16.3270285460  MEMB      133             0.0000000000
     15851       133  POPC      O12            29.0261354592       57.6251091707       18.4235069685  MEMB      133             0.0000000000
     15852       133  POPC      O11            27.7959503869       58.7516846915       16.4252761876  MEMB      133             0.0000000000
     15853       133  POPC      C1             28.8393724426       59.6569641547       16.2466333902  MEMB      133             0.0000000000
     15854       133  POPC      HA             29.7144421530       59.5045274422       16.9139690604  MEMB      133             0.0000000000
     15855       133  POPC      HB             28.4196297039       60.6623893743       16.4640208709  MEMB      133             0.0000000000
     15856       133  POPC      C2             29.2003991320       59.7734096542       14.7152544499  MEMB      133             0.0000000000
     15857       133  POPC      HS             29.3660908142       60.8523153733       14.5083010543  MEMB      133             0.0000000000
     15858       133  POPC      O21            28.1129319858       59.2286301435       13.9042886775  MEMB      133             0.0000000000
     15859       133  POPC      C21            27.3584600165       60.1134386684       13.2429243837  MEMB      133             0.0000000000
     15860       133  POPC      O22            27.5092488277       61.2715330460       13.1659761725  MEMB      133             0.0000000000
     15861       133  POPC      C22            26.2882236881       59.3753820982       12.3606283068  MEMB      133             0.0000000000
     15862       133  POPC      H2R            25.3267948212       59.4737965981       12.9086158747  MEMB      133             0.0000000000
     15863       133  POPC      H2S            26.6041470690       58.3138199331       12.2734553072  MEMB      133             0.0000000000
     15864       133  POPC      C3             30.5102937361       59.0915234240       14.2422327245  MEMB      133             0.0000000000
     15865       133  POPC      HX             31.2669666155       59.3927232080       14.9979085782  MEMB      133             0.0000000000
     15866       133  POPC      HY             30.9578140659       59.5239145114       13.3218612499  MEMB      133             0.0000000000
     15867       133  POPC      O31            30.3779317083       57.6723876888       14.0683456638  MEMB      133             0.0000000000
     15868       133  POPC      C31            30.1195363932       57.3290758001       12.7845514519  MEMB      133             0.0000000000
     15869       133  POPC      O32            29.9876597911       58.0861523917       11.8040524135  MEMB      133             0.0000000000
     15870       133  POPC      C32            29.7717036717       55.8648509840       12.6482381280  MEMB      133             0.0000000000
     15871       133  POPC      H2X            28.8109356075       55.6275519428       13.1531489203  MEMB      133             0.0000000000
     15872       133  POPC      H2Y            30.6530331183       55.3481788839       13.0848495593  MEMB      133             0.0000000000
     15873       133  POPC      C23            26.2905678220       59.9247590294       10.9560462634  MEMB      133             0.0000000000
     15874       133  POPC      H3R            26.3040701822       61.0346400248       10.9080581959  MEMB      133             0.0000000000
     15875       133  POPC      H3S            25.4151125240       59.4992046700       10.4205063572  MEMB      133             0.0000000000
     15876       133  POPC      C24            27.5095030183       59.4723672675       10.0391349911  MEMB      133             0.0000000000
     15877       133  POPC      H4R            27.7519075370       58.4585443334       10.4234838674  MEMB      133             0.0000000000
     15878       133  POPC      H4S            28.2983588617       60.2450284911       10.1616998213  MEMB      133             0.0000000000
     15879       133  POPC      C25            27.0787892753       59.2579762992        8.6086553023  MEMB      133             0.0000000000
     15880       133  POPC      H5R            26.2422557595       58.5269671767        8.6212452980  MEMB      133             0.0000000000
     15881       133  POPC      H5S            27.6211371940       58.7022224985        7.8140999719  MEMB      133             0.0000000000
     15882       133  POPC      C26            26.6259276162       60.5546185617        7.7708443598  MEMB      133             0.0000000000
     15883       133  POPC      H6R            25.9536163162       61.1128522805        8.4569158427  MEMB      133             0.0000000000
     15884       133  POPC      H6S            26.0018072695       60.2328520674        6.9098794356  MEMB      133             0.0000000000
     15885       133  POPC      C27            27.8816739735       61.3454431205        7.3978518959  MEMB      133             0.0000000000
     15886       133  POPC      H7R            28.5866108591       60.6699046336        6.8677263576  MEMB      133             0.0000000000
     15887       133  POPC      H7S            28.4267495491       61.6709015545        8.3096027888  MEMB      133             0.0000000000
     15888       133  POPC      C28            27.5807175002       62.5949532307        6.5785279790  MEMB      133             0.0000000000
     15889       133  POPC      H8R            28.4446883816       63.2930742062        6.5561087030  MEMB      133             0.0000000000
     15890       133  POPC      H8S            26.6825664433       63.1587163778        6.9099134638  MEMB      133             0.0000000000
     15891       133  POPC      C29            27.2957500237       62.3133614935        5.1053961214  MEMB      133             0.0000000000
     15892       133  POPC      H91            26.5751586100       61.4869407862        5.0172097996  MEMB      133             0.0000000000
     15893       133  POPC      C210           27.8342269658       62.9305957950        3.9816342161  MEMB      133             0.0000000000
     15894       133  POPC      H101           27.4291471848       62.7201041849        2.9808330559  MEMB      133             0.0000000000
     15895       133  POPC      C211           28.8496960054       64.0229082762        3.9569910589  MEMB      133             0.0000000000
     15896       133  POPC      H11R           29.1471350436       64.3798274617        4.9661787698  MEMB      133             0.0000000000
     15897       133  POPC      H11S           28.4253157572       64.9654191323        3.5496877271  MEMB      133             0.0000000000
     15898       133  POPC      C212           30.0702919862       63.6162935646        3.1139956866  MEMB      133             0.0000000000
     15899       133  POPC      H12R           30.5465230479       62.6835213515        3.4847525444  MEMB      133             0.0000000000
     15900       133  POPC      H12S           30.7638033704       64.4474426004        3.3641035270  MEMB      133             0.0000000000
     15901       133  POPC      C213           29.8036400789       63.4015594984        1.5660051024  MEMB      133             0.0000000000
     15902       133  POPC      H13R           29.0457754888       64.1771002632        1.3241404585  MEMB      133             0.0000000000
     15903       133  POPC      H13S           29.2942987022       62.4265285869        1.4104211252  MEMB      133             0.0000000000
     15904       133  POPC      C214           31.0312472151       63.3326300306        0.5745683893  MEMB      133             0.0000000000
     15905       133  POPC      H14R           31.4998447081       64.3389731415        0.6194129165  MEMB      133             0.0000000000
     15906       133  POPC      H14S           30.7295674979       63.1423602487       -0.4776233698  MEMB      133             0.0000000000
     15907       133  POPC      C215           32.1138023347       62.3691081305        0.9763385676  MEMB      133             0.0000000000
     15908       133  POPC      H15R           32.3588242961       62.5241084136        2.0488401507  MEMB      133             0.0000000000
     15909       133  POPC      H15S           33.0496570104       62.5765872430        0.4146887251  MEMB      133             0.0000000000
     15910       133  POPC      C216           31.6592905407       60.9316445564        0.7008523915  MEMB      133             0.0000000000
     15911       133  POPC      H16R           31.8959744531       60.8672273195       -0.3827314645  MEMB      133             0.0000000000
     15912       133  POPC      H16S           30.5643337715       60.7901517172        0.8248283947  MEMB      133             0.0000000000
     15913       133  POPC      C217           32.4286448428       59.8562934596        1.4728925050  MEMB      133             0.0000000000
     15914       133  POPC      H17R           33.5168888508       60.0246703646        1.3255998261  MEMB      133             0.0000000000
     15915       133  POPC      H17S           32.2023643769       58.8252791915        1.1262976255  MEMB      133             0.0000000000
     15916       133  POPC      C218           32.0642473282       59.8682539073        2.9743441342  MEMB      133             0.0000000000
     15917       133  POPC      H18R           32.4146169574       60.7791102567        3.5052892956  MEMB      133             0.0000000000
     15918       133  POPC      H18S           32.6242937154       59.0921054253        3.5384913927  MEMB      133             0.0000000000
     15919       133  POPC      H18T           31.0177566280       59.5713618688        3.2002502048  MEMB      133             0.0000000000
     15920       133  POPC      C33            29.3920454235       55.5910760868       11.1920805722  MEMB      133             0.0000000000
     15921       133  POPC      H3X            30.2811166288       55.7748092821       10.5516778939  MEMB      133             0.0000000000
     15922       133  POPC      H3Y            28.5453220329       56.2212946692       10.8453741696  MEMB      133             0.0000000000
     15923       133  POPC      C34            29.0074138179       54.0665261447       11.0673002086  MEMB      133             0.0000000000
     15924       133  POPC      H4X            28.1393689875       53.9163156276       11.7442457927  MEMB      133             0.0000000000
     15925       133  POPC      H4Y            29.8053726481       53.4289700817       11.5044562925  MEMB      133             0.0000000000
     15926       133  POPC      C35            28.7851648947       53.6327169685        9.6538423335  MEMB      133             0.0000000000
     15927       133  POPC      H5X            28.6623487823       52.5285439909        9.6475523943  MEMB      133             0.0000000000
     15928       133  POPC      H5Y            29.7226714254       53.7971735987        9.0808180875  MEMB      133             0.0000000000
     15929       133  POPC      C36            27.5884978162       54.3664124682        8.8984088483  MEMB      133             0.0000000000
     15930       133  POPC      H6X            27.6662897984       55.4686949817        8.7833325862  MEMB      133             0.0000000000
     15931       133  POPC      H6Y            26.6872645492       54.1695307259        9.5175514272  MEMB      133             0.0000000000
     15932       133  POPC      C37            27.4250928368       53.8514724372        7.5102775284  MEMB      133             0.0000000000
     15933       133  POPC      H7X            26.7000277499       54.4432970495        6.9116577212  MEMB      133             0.0000000000
     15934       133  POPC      H7Y            27.0839382998       52.7945478838        7.4812171364  MEMB      133             0.0000000000
     15935       133  POPC      C38            28.7116750574       53.7484792007        6.5983898784  MEMB      133             0.0000000000
     15936       133  POPC      H8X            28.3060470751       53.1588821155        5.7485878117  MEMB      133             0.0000000000
     15937       133  POPC      H8Y            29.4168743906       53.0600274780        7.1112730650  MEMB      133             0.0000000000
     15938       133  POPC      C39            29.2489717302       55.2171028512        6.4336238399  MEMB      133             0.0000000000
     15939       133  POPC      H9X            30.2186048142       55.1735420816        5.8930359656  MEMB      133             0.0000000000
     15940       133  POPC      H9Y            29.3196699830       55.7322797330        7.4154152390  MEMB      133             0.0000000000
     15941       133  POPC      C310           28.4295331308       56.1794738684        5.5059278445  MEMB      133             0.0000000000
     15942       133  POPC      H10X           27.4683478007       56.3610114245        6.0326992242  MEMB      133             0.0000000000
     15943       133  POPC      H10Y           28.2197323797       55.6771381187        4.5374425635  MEMB      133             0.0000000000
     15944       133  POPC      C311           29.2267108524       57.4994458007        5.4282247990  MEMB      133             0.0000000000
     15945       133  POPC      H11X           30.1702754759       57.3723617822        4.8556369725  MEMB      133             0.0000000000
     15946       133  POPC      H11Y           29.4875347127       57.8833413445        6.4376388006  MEMB      133             0.0000000000
     15947       133  POPC      C312           28.3625431133       58.5450335914        4.6942514954  MEMB      133             0.0000000000
     15948       133  POPC      H12X           28.9628207600       59.4746122480        4.5948971894  MEMB      133             0.0000000000
     15949       133  POPC      H12Y           27.4273643716       58.7337237907        5.2636000452  MEMB      133             0.0000000000
     15950       133  POPC      C313           27.9746091603       58.3186337057        3.2510991680  MEMB      133             0.0000000000
     15951       133  POPC      H13X           27.5124535109       59.2993326669        3.0082759917  MEMB      133             0.0000000000
     15952       133  POPC      H13Y           27.1879012836       57.5404857150        3.3505826910  MEMB      133             0.0000000000
     15953       133  POPC      C314           29.0608710578       57.8289412932        2.2576992722  MEMB      133             0.0000000000
     15954       133  POPC      H14X           29.7205067487       57.0883415773        2.7584119694  MEMB      133             0.0000000000
     15955       133  POPC      H14Y           29.8015892742       58.5951032790        1.9436079644  MEMB      133             0.0000000000
     15956       133  POPC      C315           28.4726993270       57.2245604117        0.9332492487  MEMB      133             0.0000000000
     15957       133  POPC      H15X           27.8750395354       56.3924907016        1.3631150234  MEMB      133             0.0000000000
     15958       133  POPC      H15Y           29.3006684864       56.9662714713        0.2389330021  MEMB      133             0.0000000000
     15959       133  POPC      C316           27.4598900406       58.1223767409        0.2083774023  MEMB      133             0.0000000000
     15960       133  POPC      H16X           27.9835603535       58.8907052247       -0.3997033366  MEMB      133             0.0000000000
     15961       133  POPC      H16Y           26.6039438208       58.5321268710        0.7861164247  MEMB      133             0.0000000000
     15962       133  POPC      H16Z           26.8443849512       57.4991955754       -0.4750853894  MEMB      133             0.0000000000
     15963       134  POPC      N              51.0283327256       35.5421415745       18.7533463226  MEMB      134             0.0000000000
     15964       134  POPC      C12            51.4164076806       36.6838907570       17.8272945202  MEMB      134             0.0000000000
     15965       134  POPC      H12A           51.4083788506       36.3096806405       16.8142287711  MEMB      134             0.0000000000
     15966       134  POPC      H12B           52.2935642753       37.1897268364       18.2029622656  MEMB      134             0.0000000000
     15967       134  POPC      C13            51.1022365173       36.0412867362       20.1997177505  MEMB      134             0.0000000000
     15968       134  POPC      H13A           50.4026056119       36.8448286703       20.3764577009  MEMB      134             0.0000000000
     15969       134  POPC      H13B           50.8666221778       35.2862613164       20.9351239810  MEMB      134             0.0000000000
     15970       134  POPC      H13C           52.1164673290       36.4122609557       20.1890377150  MEMB      134             0.0000000000
     15971       134  POPC      C14            49.5970842808       35.1295171757       18.4568216532  MEMB      134             0.0000000000
     15972       134  POPC      H14A           49.2120824127       34.2753238561       18.9939690292  MEMB      134             0.0000000000
     15973       134  POPC      H14B           49.0509971638       36.0347287606       18.6776850406  MEMB      134             0.0000000000
     15974       134  POPC      H14C           49.4212908609       34.9327060475       17.4095575949  MEMB      134             0.0000000000
     15975       134  POPC      C15            51.8867205828       34.3785803319       18.6410495759  MEMB      134             0.0000000000
     15976       134  POPC      H15A           51.8608698242       33.8891133201       17.6786808282  MEMB      134             0.0000000000
     15977       134  POPC      H15B           51.6425017273       33.6480126366       19.3980355969  MEMB      134             0.0000000000
     15978       134  POPC      H15C           52.8253467558       34.8663668920       18.8588682446  MEMB      134             0.0000000000
     15979       134  POPC      C11            50.3405447150       37.8408091672       17.6663084416  MEMB      134             0.0000000000
     15980       134  POPC      H11A           49.4327266476       37.3859377040       17.2154434093  MEMB      134             0.0000000000
     15981       134  POPC      H11B           50.7875706619       38.6211791826       17.0139959100  MEMB      134             0.0000000000
     15982       134  POPC      P              50.4981546538       39.6641544946       19.5650399466  MEMB      134             0.0000000000
     15983       134  POPC      O13            51.9910509262       39.4276643041       19.5893404309  MEMB      134             0.0000000000
     15984       134  POPC      O14            49.8733014825       39.8550669030       20.9091971288  MEMB      134             0.0000000000
     15985       134  POPC      O12            49.9011221340       38.4318946851       18.8242847451  MEMB      134             0.0000000000
     15986       134  POPC      O11            50.1322312271       40.8966060366       18.5675994807  MEMB      134             0.0000000000
     15987       134  POPC      C1             51.0331048127       41.9476511719       18.3570262632  MEMB      134             0.0000000000
     15988       134  POPC      HA             52.0318080826       41.5428827472       18.0867014996  MEMB      134             0.0000000000
     15989       134  POPC      HB             51.2230751551       42.5120034466       19.2949700943  MEMB      134             0.0000000000
     15990       134  POPC      C2             50.4514718341       42.7066378206       17.1449016246  MEMB      134             0.0000000000
     15991       134  POPC      HS             49.5022055745       43.2158837176       17.4167155712  MEMB      134             0.0000000000
     15992       134  POPC      O21            50.2739902088       41.7050223037       16.0883704081  MEMB      134             0.0000000000
     15993       134  POPC      C21            49.1238966601       41.2419272700       15.7413884617  MEMB      134             0.0000000000
     15994       134  POPC      O22            48.0303425702       41.5437901668       16.2201068913  MEMB      134             0.0000000000
     15995       134  POPC      C22            49.1753689242       40.4724502073       14.4580667094  MEMB      134             0.0000000000
     15996       134  POPC      H2R            48.4158909166       39.6763070289       14.6119166856  MEMB      134             0.0000000000
     15997       134  POPC      H2S            50.2152653186       40.1195203102       14.2896118744  MEMB      134             0.0000000000
     15998       134  POPC      C3             51.3925526020       43.8476532468       16.6741899619  MEMB      134             0.0000000000
     15999       134  POPC      HX             52.4193207705       43.4234886946       16.6865402808  MEMB      134             0.0000000000
     16000       134  POPC      HY             51.4105686830       44.7223684303       17.3589308863  MEMB      134             0.0000000000
     16001       134  POPC      O31            51.0594002221       44.3360685031       15.3670915469  MEMB      134             0.0000000000
     16002       134  POPC      C31            51.8756445164       43.9018097941       14.3921873331  MEMB      134             0.0000000000
     16003       134  POPC      O32            52.6239126836       42.8721859639       14.3827022074  MEMB      134             0.0000000000
     16004       134  POPC      C32            51.7452941199       44.6056990470       12.9916738378  MEMB      134             0.0000000000
     16005       134  POPC      H2X            52.7747404874       44.9472481644       12.7510386460  MEMB      134             0.0000000000
     16006       134  POPC      H2Y            51.2034617224       45.5740934027       13.0459905884  MEMB      134             0.0000000000
     16007       134  POPC      C23            48.7763367730       41.3949242320       13.2638366142  MEMB      134             0.0000000000
     16008       134  POPC      H3R            49.3512481319       42.3455975911       13.2681104785  MEMB      134             0.0000000000
     16009       134  POPC      H3S            47.7039195711       41.5953189390       13.4737996529  MEMB      134             0.0000000000
     16010       134  POPC      C24            48.8906229738       40.6654791621       11.9192300922  MEMB      134             0.0000000000
     16011       134  POPC      H4R            49.9164708243       40.2738625154       11.7501337960  MEMB      134             0.0000000000
     16012       134  POPC      H4S            48.5672536924       41.4491461078       11.2011637919  MEMB      134             0.0000000000
     16013       134  POPC      C25            47.9797955950       39.4413921579       11.8775328926  MEMB      134             0.0000000000
     16014       134  POPC      H5R            46.9237783973       39.7860349986       11.8967739544  MEMB      134             0.0000000000
     16015       134  POPC      H5S            48.0574424287       38.7632743235       12.7541444518  MEMB      134             0.0000000000
     16016       134  POPC      C26            48.2507184141       38.5134504823       10.6671469942  MEMB      134             0.0000000000
     16017       134  POPC      H6R            49.1508456583       37.8743319920       10.7921262842  MEMB      134             0.0000000000
     16018       134  POPC      H6S            48.5131528388       39.2093007093        9.8417729861  MEMB      134             0.0000000000
     16019       134  POPC      C27            46.9844578046       37.7591058078       10.2199636249  MEMB      134             0.0000000000
     16020       134  POPC      H7R            46.1979016902       38.4971350209        9.9535749274  MEMB      134             0.0000000000
     16021       134  POPC      H7S            46.6090712606       37.2039794612       11.1061019979  MEMB      134             0.0000000000
     16022       134  POPC      C28            47.2449999178       36.7255779413        9.0917738758  MEMB      134             0.0000000000
     16023       134  POPC      H8R            47.5955064366       37.2430162307        8.1732298637  MEMB      134             0.0000000000
     16024       134  POPC      H8S            46.2569830272       36.3016485716        8.8117252041  MEMB      134             0.0000000000
     16025       134  POPC      C29            48.2180571778       35.6082891607        9.3937829286  MEMB      134             0.0000000000
     16026       134  POPC      H91            47.8389365420       34.5988508049        9.6112724185  MEMB      134             0.0000000000
     16027       134  POPC      C210           49.4848133184       35.6344433441        9.1709937396  MEMB      134             0.0000000000
     16028       134  POPC      H101           50.0520186645       34.6919978445        9.1796307934  MEMB      134             0.0000000000
     16029       134  POPC      C211           50.3773537359       36.7433357307        8.6059979889  MEMB      134             0.0000000000
     16030       134  POPC      H11R           51.2038502893       36.8325910439        9.3430587401  MEMB      134             0.0000000000
     16031       134  POPC      H11S           49.9870212821       37.7705812638        8.4425111276  MEMB      134             0.0000000000
     16032       134  POPC      C212           51.0119580115       36.3755286031        7.2531277096  MEMB      134             0.0000000000
     16033       134  POPC      H12R           50.2325087289       35.8908280213        6.6271524575  MEMB      134             0.0000000000
     16034       134  POPC      H12S           51.6012858523       35.4753735430        7.5301368464  MEMB      134             0.0000000000
     16035       134  POPC      C213           51.8732164125       37.3055740597        6.5368958250  MEMB      134             0.0000000000
     16036       134  POPC      H13R           52.7451738970       37.6305889110        7.1438361515  MEMB      134             0.0000000000
     16037       134  POPC      H13S           51.3907478301       38.3019195329        6.4428718106  MEMB      134             0.0000000000
     16038       134  POPC      C214           52.3471148940       36.8122766408        5.0992404855  MEMB      134             0.0000000000
     16039       134  POPC      H14R           51.4698228617       36.6168843378        4.4461691105  MEMB      134             0.0000000000
     16040       134  POPC      H14S           52.8189993814       35.8440504502        5.3716068285  MEMB      134             0.0000000000
     16041       134  POPC      C215           53.3954115125       37.6539611655        4.3557499691  MEMB      134             0.0000000000
     16042       134  POPC      H15R           53.7904650826       37.0527221369        3.5091300943  MEMB      134             0.0000000000
     16043       134  POPC      H15S           54.2585596286       37.8931213298        5.0130919740  MEMB      134             0.0000000000
     16044       134  POPC      C216           52.8484341409       38.9741631895        3.8218090543  MEMB      134             0.0000000000
     16045       134  POPC      H16R           53.1214230375       39.8391352869        4.4633863095  MEMB      134             0.0000000000
     16046       134  POPC      H16S           51.7432714528       38.8870272991        3.7487076876  MEMB      134             0.0000000000
     16047       134  POPC      C217           53.2664642369       39.1795866269        2.3630601635  MEMB      134             0.0000000000
     16048       134  POPC      H17R           52.7695276584       38.3467842211        1.8210130564  MEMB      134             0.0000000000
     16049       134  POPC      H17S           54.3656668059       39.0402024499        2.2815303401  MEMB      134             0.0000000000
     16050       134  POPC      C218           52.7602131686       40.5263085279        1.8597400420  MEMB      134             0.0000000000
     16051       134  POPC      H18R           51.6831474266       40.6142796907        2.1176380125  MEMB      134             0.0000000000
     16052       134  POPC      H18S           52.9011283957       40.5622194393        0.7582983594  MEMB      134             0.0000000000
     16053       134  POPC      H18T           53.3192654219       41.3673397294        2.3228260501  MEMB      134             0.0000000000
     16054       134  POPC      C33            51.1515430241       43.6625080413       11.9043686518  MEMB      134             0.0000000000
     16055       134  POPC      H3X            50.0512756032       43.8056213539       11.8473501348  MEMB      134             0.0000000000
     16056       134  POPC      H3Y            51.5042869070       42.6151234228       12.0178496080  MEMB      134             0.0000000000
     16057       134  POPC      C34            51.9360941453       43.9805155226       10.5718818855  MEMB      134             0.0000000000
     16058       134  POPC      H4X            53.0052848314       43.8763432902       10.8552553522  MEMB      134             0.0000000000
     16059       134  POPC      H4Y            51.8674403241       45.0176351618       10.1794666251  MEMB      134             0.0000000000
     16060       134  POPC      C35            51.7678477267       43.0213608953        9.3900510665  MEMB      134             0.0000000000
     16061       134  POPC      H5X            52.0202404686       42.0334196825        9.8311759168  MEMB      134             0.0000000000
     16062       134  POPC      H5Y            52.5592989876       43.2291736580        8.6385597184  MEMB      134             0.0000000000
     16063       134  POPC      C36            50.4139430042       43.0973831290        8.6097371972  MEMB      134             0.0000000000
     16064       134  POPC      H6X            50.3164563356       44.0932954294        8.1270610170  MEMB      134             0.0000000000
     16065       134  POPC      H6Y            49.6205604069       42.8916754155        9.3597703031  MEMB      134             0.0000000000
     16066       134  POPC      C37            50.1483601950       42.0243744163        7.5404276218  MEMB      134             0.0000000000
     16067       134  POPC      H7X            50.1422845809       41.1092681788        8.1703995172  MEMB      134             0.0000000000
     16068       134  POPC      H7Y            51.0068566135       41.9633439974        6.8378749545  MEMB      134             0.0000000000
     16069       134  POPC      C38            48.7990338556       42.2893279466        6.8740531099  MEMB      134             0.0000000000
     16070       134  POPC      H8X            48.8196111254       43.3411641497        6.5169285014  MEMB      134             0.0000000000
     16071       134  POPC      H8Y            48.0163098618       41.9588296002        7.5898991359  MEMB      134             0.0000000000
     16072       134  POPC      C39            48.6362149317       41.4975944925        5.5769813463  MEMB      134             0.0000000000
     16073       134  POPC      H9X            49.4589661062       41.7852541567        4.8880302430  MEMB      134             0.0000000000
     16074       134  POPC      H9Y            47.8566889067       41.8682123190        4.8774794361  MEMB      134             0.0000000000
     16075       134  POPC      C310           48.5399265816       39.9699016123        5.6068618518  MEMB      134             0.0000000000
     16076       134  POPC      H10X           47.5510105047       39.5875225297        5.9387530901  MEMB      134             0.0000000000
     16077       134  POPC      H10Y           49.3219715904       39.6085248659        6.3083842085  MEMB      134             0.0000000000
     16078       134  POPC      C311           48.8565811149       39.2000132487        4.2777610830  MEMB      134             0.0000000000
     16079       134  POPC      H11X           49.2171195907       38.1682385138        4.4771949875  MEMB      134             0.0000000000
     16080       134  POPC      H11Y           49.7094640018       39.7651036354        3.8446511720  MEMB      134             0.0000000000
     16081       134  POPC      C312           47.7614201163       39.1796520159        3.2722440949  MEMB      134             0.0000000000
     16082       134  POPC      H12X           47.6131106761       40.1843959475        2.8218925103  MEMB      134             0.0000000000
     16083       134  POPC      H12Y           46.8147910526       38.8509620192        3.7520119877  MEMB      134             0.0000000000
     16084       134  POPC      C313           48.0165907248       38.2366758368        1.9840977907  MEMB      134             0.0000000000
     16085       134  POPC      H13X           47.1609776389       38.3509170320        1.2846714947  MEMB      134             0.0000000000
     16086       134  POPC      H13Y           48.0397884434       37.2188926561        2.4289574598  MEMB      134             0.0000000000
     16087       134  POPC      C314           49.3040235496       38.4276965495        1.2253388552  MEMB      134             0.0000000000
     16088       134  POPC      H14X           50.1820455328       38.4768151856        1.9042991237  MEMB      134             0.0000000000
     16089       134  POPC      H14Y           49.2582730405       39.3707687733        0.6398132662  MEMB      134             0.0000000000
     16090       134  POPC      C315           49.6726009074       37.2339089718        0.3250668758  MEMB      134             0.0000000000
     16091       134  POPC      H15X           48.7668284801       37.0318132321       -0.2857151973  MEMB      134             0.0000000000
     16092       134  POPC      H15Y           49.8107943743       36.3513362132        0.9855881706  MEMB      134             0.0000000000
     16093       134  POPC      C316           50.9728218603       37.3337327292       -0.5819802543  MEMB      134             0.0000000000
     16094       134  POPC      H16X           50.9070994415       38.2116316501       -1.2596925644  MEMB      134             0.0000000000
     16095       134  POPC      H16Y           51.0062238653       36.3684793509       -1.1310621311  MEMB      134             0.0000000000
     16096       134  POPC      H16Z           51.8201118651       37.5981617941        0.0862245291  MEMB      134             0.0000000000
     16097       135  POPC      N              36.3738180997      -53.0903215153       20.5020578064  MEMB      135             0.0000000000
     16098       135  POPC      C12            36.3554386662      -53.7130614245       19.0959225694  MEMB      135             0.0000000000
     16099       135  POPC      H12A           36.9741556106      -54.5955532633       19.1651861989  MEMB      135             0.0000000000
     16100       135  POPC      H12B           36.5544809331      -53.0382937963       18.2764893455  MEMB      135             0.0000000000
     16101       135  POPC      C13            35.7555259691      -51.6988706790       20.4707250419  MEMB      135             0.0000000000
     16102       135  POPC      H13A           34.7663986215      -51.7561664061       20.0409060615  MEMB      135             0.0000000000
     16103       135  POPC      H13B           35.6881400741      -51.2464205391       21.4490644432  MEMB      135             0.0000000000
     16104       135  POPC      H13C           36.2931451378      -51.0962635810       19.7536265223  MEMB      135             0.0000000000
     16105       135  POPC      C14            35.4601490579      -53.9441670612       21.3743042956  MEMB      135             0.0000000000
     16106       135  POPC      H14A           34.4876609556      -53.6253286168       21.0293274607  MEMB      135             0.0000000000
     16107       135  POPC      H14B           35.7629450168      -54.8885285232       20.9466408992  MEMB      135             0.0000000000
     16108       135  POPC      H14C           35.7537602644      -53.9259595391       22.4134678574  MEMB      135             0.0000000000
     16109       135  POPC      C15            37.7389122211      -53.0686620218       21.1136311824  MEMB      135             0.0000000000
     16110       135  POPC      H15A           38.1710430124      -54.0559111038       21.0429042086  MEMB      135             0.0000000000
     16111       135  POPC      H15B           37.7472482430      -52.8449188955       22.1701677660  MEMB      135             0.0000000000
     16112       135  POPC      H15C           38.2874958358      -52.3401463411       20.5350805421  MEMB      135             0.0000000000
     16113       135  POPC      C11            34.8850791001      -54.2362015233       18.6027924353  MEMB      135             0.0000000000
     16114       135  POPC      H11A           34.5902742018      -55.0590552807       19.2885933203  MEMB      135             0.0000000000
     16115       135  POPC      H11B           34.9791441604      -54.7782958440       17.6375948077  MEMB      135             0.0000000000
     16116       135  POPC      P              33.6515491966      -52.1250324124       17.5577208503  MEMB      135             0.0000000000
     16117       135  POPC      O13            34.9838106633      -51.7150962136       16.9727048050  MEMB      135             0.0000000000
     16118       135  POPC      O14            32.7160723566      -51.1341737324       18.1390092492  MEMB      135             0.0000000000
     16119       135  POPC      O12            33.9076791720      -53.2284213748       18.6293401814  MEMB      135             0.0000000000
     16120       135  POPC      O11            32.9131431948      -53.0970549388       16.5417915779  MEMB      135             0.0000000000
     16121       135  POPC      C1             31.7402632223      -53.7759535374       16.9198844381  MEMB      135             0.0000000000
     16122       135  POPC      HA             31.2287681433      -53.2642823782       17.7630251227  MEMB      135             0.0000000000
     16123       135  POPC      HB             31.9402493218      -54.8197846388       17.2435244322  MEMB      135             0.0000000000
     16124       135  POPC      C2             30.8015768998      -53.7971296038       15.6655280469  MEMB      135             0.0000000000
     16125       135  POPC      HS             30.1348517942      -54.6815643962       15.5784988587  MEMB      135             0.0000000000
     16126       135  POPC      O21            31.5922347995      -53.7956794756       14.4940843701  MEMB      135             0.0000000000
     16127       135  POPC      C21            30.9844201695      -54.1806515083       13.3867357770  MEMB      135             0.0000000000
     16128       135  POPC      O22            29.8474148362      -54.5367907495       13.2084692497  MEMB      135             0.0000000000
     16129       135  POPC      C22            31.9919578277      -54.0575044328       12.2798895863  MEMB      135             0.0000000000
     16130       135  POPC      H2R            32.8402444880      -54.7548983596       12.4483309684  MEMB      135             0.0000000000
     16131       135  POPC      H2S            32.4484009248      -53.0463041736       12.3386637658  MEMB      135             0.0000000000
     16132       135  POPC      C3             29.8167282594      -52.5297830208       15.6109963050  MEMB      135             0.0000000000
     16133       135  POPC      HX             29.3139878641      -52.5675739332       16.6010190842  MEMB      135             0.0000000000
     16134       135  POPC      HY             28.9892324263      -52.4935380796       14.8705521124  MEMB      135             0.0000000000
     16135       135  POPC      O31            30.4993298297      -51.2838078062       15.6990544948  MEMB      135             0.0000000000
     16136       135  POPC      C31            30.7806266049      -50.6835887481       14.5925319792  MEMB      135             0.0000000000
     16137       135  POPC      O32            30.3358003622      -50.9564405289       13.4880450745  MEMB      135             0.0000000000
     16138       135  POPC      C32            31.6886635369      -49.4322978607       14.8807911978  MEMB      135             0.0000000000
     16139       135  POPC      H2X            31.3063868922      -48.9818721993       15.8216962973  MEMB      135             0.0000000000
     16140       135  POPC      H2Y            31.6533880488      -48.7497276417       14.0049063490  MEMB      135             0.0000000000
     16141       135  POPC      C23            31.4214836102      -54.2578481167       10.8797223793  MEMB      135             0.0000000000
     16142       135  POPC      H3R            31.0111741745      -55.2903020169       10.8821809272  MEMB      135             0.0000000000
     16143       135  POPC      H3S            32.2167276287      -54.2810764551       10.1042430448  MEMB      135             0.0000000000
     16144       135  POPC      C24            30.4112282678      -53.2163433143       10.3628207828  MEMB      135             0.0000000000
     16145       135  POPC      H4R            30.9509116124      -52.4490399897        9.7675824048  MEMB      135             0.0000000000
     16146       135  POPC      H4S            29.7812564324      -52.7343342523       11.1407179306  MEMB      135             0.0000000000
     16147       135  POPC      C25            29.5779035967      -53.8701669261        9.2474666613  MEMB      135             0.0000000000
     16148       135  POPC      H5R            29.0359378476      -54.7687218028        9.6124235950  MEMB      135             0.0000000000
     16149       135  POPC      H5S            30.1936745340      -54.1304069330        8.3600991276  MEMB      135             0.0000000000
     16150       135  POPC      C26            28.5462358800      -52.8296284469        8.6617258942  MEMB      135             0.0000000000
     16151       135  POPC      H6R            28.0424610432      -52.4250106638        9.5655047909  MEMB      135             0.0000000000
     16152       135  POPC      H6S            27.7771307563      -53.3961977735        8.0944546056  MEMB      135             0.0000000000
     16153       135  POPC      C27            29.1259190930      -51.7246549329        7.6779649026  MEMB      135             0.0000000000
     16154       135  POPC      H7R            29.9192968494      -51.1211416630        8.1685196313  MEMB      135             0.0000000000
     16155       135  POPC      H7S            28.3931158415      -50.9295957366        7.4226178228  MEMB      135             0.0000000000
     16156       135  POPC      C28            29.6635182366      -52.2747723010        6.4064097954  MEMB      135             0.0000000000
     16157       135  POPC      H8R            30.3602802353      -53.1391097489        6.4484187067  MEMB      135             0.0000000000
     16158       135  POPC      H8S            30.2296767064      -51.4960985627        5.8519253643  MEMB      135             0.0000000000
     16159       135  POPC      C29            28.5501687117      -52.5870352744        5.4162524341  MEMB      135             0.0000000000
     16160       135  POPC      H91            28.0036549036      -51.6893253101        5.0915389094  MEMB      135             0.0000000000
     16161       135  POPC      C210           28.1403776032      -53.8367717036        5.0471613955  MEMB      135             0.0000000000
     16162       135  POPC      H101           27.3809340252      -53.8623482600        4.2518061523  MEMB      135             0.0000000000
     16163       135  POPC      C211           28.7661279632      -55.1605373363        5.5263436121  MEMB      135             0.0000000000
     16164       135  POPC      H11R           28.0677815909      -55.9455449074        5.1652391470  MEMB      135             0.0000000000
     16165       135  POPC      H11S           28.8783457318      -55.1989190417        6.6309946412  MEMB      135             0.0000000000
     16166       135  POPC      C212           30.0564906040      -55.3560176664        4.7380308977  MEMB      135             0.0000000000
     16167       135  POPC      H12R           30.4685814203      -56.3182483081        5.1103403537  MEMB      135             0.0000000000
     16168       135  POPC      H12S           30.7920605497      -54.5339178091        4.8699792283  MEMB      135             0.0000000000
     16169       135  POPC      C213           29.8681351637      -55.4505504280        3.2302339851  MEMB      135             0.0000000000
     16170       135  POPC      H13R           29.6857334658      -54.4069076907        2.8957795543  MEMB      135             0.0000000000
     16171       135  POPC      H13S           28.9373831491      -55.9800587688        2.9341886954  MEMB      135             0.0000000000
     16172       135  POPC      C214           31.1671772562      -55.9706106004        2.4121607631  MEMB      135             0.0000000000
     16173       135  POPC      H14R           31.2865139281      -57.0708252267        2.5101754243  MEMB      135             0.0000000000
     16174       135  POPC      H14S           32.1291134734      -55.6085850865        2.8339857232  MEMB      135             0.0000000000
     16175       135  POPC      C215           31.1630647050      -55.8217761355        0.9236291689  MEMB      135             0.0000000000
     16176       135  POPC      H15R           30.2396646110      -56.3026497474        0.5357970155  MEMB      135             0.0000000000
     16177       135  POPC      H15S           32.0433070387      -56.4024515385        0.5739000409  MEMB      135             0.0000000000
     16178       135  POPC      C216           31.2860531513      -54.4412301189        0.4056173665  MEMB      135             0.0000000000
     16179       135  POPC      H16R           32.2618513886      -53.9660891419        0.6430641657  MEMB      135             0.0000000000
     16180       135  POPC      H16S           30.5496782525      -53.7125171938        0.8069281650  MEMB      135             0.0000000000
     16181       135  POPC      C217           31.1719135261      -54.4933356340       -1.1608500191  MEMB      135             0.0000000000
     16182       135  POPC      H17R           31.9295560757      -55.2081273763       -1.5473360069  MEMB      135             0.0000000000
     16183       135  POPC      H17S           31.4775831947      -53.5968172777       -1.7414888501  MEMB      135             0.0000000000
     16184       135  POPC      C218           29.7446311349      -54.8230442242       -1.6188358631  MEMB      135             0.0000000000
     16185       135  POPC      H18R           29.0657628316      -53.9983764745       -1.3132515814  MEMB      135             0.0000000000
     16186       135  POPC      H18S           29.3600364895      -55.7819620590       -1.2103208090  MEMB      135             0.0000000000
     16187       135  POPC      H18T           29.8112268652      -54.7660954848       -2.7263745608  MEMB      135             0.0000000000
     16188       135  POPC      C33            33.2060189631      -49.8635429803       14.9654171698  MEMB      135             0.0000000000
     16189       135  POPC      H3X            33.1888042560      -50.9735227375       15.0097943658  MEMB      135             0.0000000000
     16190       135  POPC      H3Y            33.7329805307      -49.5466715439       15.8907415315  MEMB      135             0.0000000000
     16191       135  POPC      C34            34.0399872902      -49.4987861693       13.7446499898  MEMB      135             0.0000000000
     16192       135  POPC      H4X            35.0598385120      -49.8814311463       13.9632985190  MEMB      135             0.0000000000
     16193       135  POPC      H4Y            34.1736197743      -48.4042286074       13.6089764526  MEMB      135             0.0000000000
     16194       135  POPC      C35            33.5438677543      -50.0559483047       12.3954722270  MEMB      135             0.0000000000
     16195       135  POPC      H5X            32.5266013680      -49.6630167171       12.1831160234  MEMB      135             0.0000000000
     16196       135  POPC      H5Y            33.4910049592      -51.1570844829       12.5334064226  MEMB      135             0.0000000000
     16197       135  POPC      C36            34.5601774945      -49.8309340175       11.2314288425  MEMB      135             0.0000000000
     16198       135  POPC      H6X            35.5133921448      -50.2646735000       11.6023370158  MEMB      135             0.0000000000
     16199       135  POPC      H6Y            34.7896433519      -48.7468226156       11.1516240841  MEMB      135             0.0000000000
     16200       135  POPC      C37            34.2852086600      -50.4515199182        9.9217971468  MEMB      135             0.0000000000
     16201       135  POPC      H7X            34.9930781048      -50.0314947976        9.1755930964  MEMB      135             0.0000000000
     16202       135  POPC      H7Y            33.2544748409      -50.2080132963        9.5862177242  MEMB      135             0.0000000000
     16203       135  POPC      C38            34.4554889924      -52.0097331718        9.8777147109  MEMB      135             0.0000000000
     16204       135  POPC      H8X            33.5455073300      -52.4199138886       10.3655737351  MEMB      135             0.0000000000
     16205       135  POPC      H8Y            35.4281153962      -52.1704727927       10.3900445068  MEMB      135             0.0000000000
     16206       135  POPC      C39            34.6807452436      -52.5814156429        8.4042998607  MEMB      135             0.0000000000
     16207       135  POPC      H9X            35.2442719164      -53.5387840531        8.3900035038  MEMB      135             0.0000000000
     16208       135  POPC      H9Y            35.3778684644      -51.9517443930        7.8111264183  MEMB      135             0.0000000000
     16209       135  POPC      C310           33.3412919939      -52.8119673011        7.5283996543  MEMB      135             0.0000000000
     16210       135  POPC      H10X           32.7780443309      -51.8741491986        7.7222304075  MEMB      135             0.0000000000
     16211       135  POPC      H10Y           32.8678280513      -53.6563432168        8.0735437814  MEMB      135             0.0000000000
     16212       135  POPC      C311           33.4520562699      -53.1737595204        6.0937897822  MEMB      135             0.0000000000
     16213       135  POPC      H11X           32.3944936377      -53.3892701215        5.8302804242  MEMB      135             0.0000000000
     16214       135  POPC      H11Y           34.0563930647      -54.0999709112        5.9878166584  MEMB      135             0.0000000000
     16215       135  POPC      C312           34.1704975377      -52.1728120570        5.1881354072  MEMB      135             0.0000000000
     16216       135  POPC      H12X           34.4807564392      -52.6252252250        4.2220176564  MEMB      135             0.0000000000
     16217       135  POPC      H12Y           35.0842386542      -51.7991924480        5.6978477436  MEMB      135             0.0000000000
     16218       135  POPC      C313           33.3386699120      -50.9032346062        4.8833456504  MEMB      135             0.0000000000
     16219       135  POPC      H13X           33.2766298427      -50.2819313051        5.8022876377  MEMB      135             0.0000000000
     16220       135  POPC      H13Y           32.2970029028      -51.1999607310        4.6359509384  MEMB      135             0.0000000000
     16221       135  POPC      C314           33.8671343437      -49.9556966551        3.8210483605  MEMB      135             0.0000000000
     16222       135  POPC      H14X           34.7713457486      -49.4088803792        4.1641446860  MEMB      135             0.0000000000
     16223       135  POPC      H14Y           33.1689972742      -49.1348892747        3.5504927117  MEMB      135             0.0000000000
     16224       135  POPC      C315           34.2733436213      -50.6916111825        2.4996370713  MEMB      135             0.0000000000
     16225       135  POPC      H15X           34.9247835831      -51.5665360515        2.7104755632  MEMB      135             0.0000000000
     16226       135  POPC      H15Y           34.9002786368      -49.9281790279        1.9912618535  MEMB      135             0.0000000000
     16227       135  POPC      C316           33.2083231031      -51.3223322106        1.6384595017  MEMB      135             0.0000000000
     16228       135  POPC      H16X           32.7434489387      -52.1996735476        2.1369436266  MEMB      135             0.0000000000
     16229       135  POPC      H16Y           33.5827568275      -51.7193201079        0.6707201064  MEMB      135             0.0000000000
     16230       135  POPC      H16Z           32.5474789822      -50.4863627994        1.3241971941  MEMB      135             0.0000000000
     16231       136  POPC      N             -46.3488495551      -48.5956397179       19.2800218189  MEMB      136             0.0000000000
     16232       136  POPC      C12           -45.3355600560      -47.4264637094       19.1820002193  MEMB      136             0.0000000000
     16233       136  POPC      H12A          -44.4270775430      -47.8682930278       18.8001014382  MEMB      136             0.0000000000
     16234       136  POPC      H12B          -45.0789434849      -47.1544791658       20.1951992785  MEMB      136             0.0000000000
     16235       136  POPC      C13           -47.4675798796      -48.1864916753       20.1879315206  MEMB      136             0.0000000000
     16236       136  POPC      H13A          -48.1255763103      -49.0424475392       20.2158603515  MEMB      136             0.0000000000
     16237       136  POPC      H13B          -46.9144394802      -47.8619563567       21.0569036161  MEMB      136             0.0000000000
     16238       136  POPC      H13C          -47.9888707735      -47.3291576858       19.7883890029  MEMB      136             0.0000000000
     16239       136  POPC      C14           -46.8074158986      -48.7740471252       17.9176914148  MEMB      136             0.0000000000
     16240       136  POPC      H14A          -46.9020318239      -47.8093649333       17.4414184381  MEMB      136             0.0000000000
     16241       136  POPC      H14B          -46.0579671474      -49.3290782386       17.3730196549  MEMB      136             0.0000000000
     16242       136  POPC      H14C          -47.7609278617      -49.2777612963       17.8586423097  MEMB      136             0.0000000000
     16243       136  POPC      C15           -45.7853758400      -49.9112501300       19.8009421339  MEMB      136             0.0000000000
     16244       136  POPC      H15A          -46.4893830276      -50.6669936346       19.4853075389  MEMB      136             0.0000000000
     16245       136  POPC      H15B          -45.5840211880      -49.7863429297       20.8546282674  MEMB      136             0.0000000000
     16246       136  POPC      H15C          -44.8188783353      -50.0872151076       19.3522560662  MEMB      136             0.0000000000
     16247       136  POPC      C11           -45.7119986423      -46.0839379232       18.4517741696  MEMB      136             0.0000000000
     16248       136  POPC      H11A          -45.7096148891      -46.1928599486       17.3461289718  MEMB      136             0.0000000000
     16249       136  POPC      H11B          -44.9407142846      -45.3166615777       18.6770036113  MEMB      136             0.0000000000
     16250       136  POPC      P             -47.4722607890      -44.1597795221       18.8893370319  MEMB      136             0.0000000000
     16251       136  POPC      O13           -46.5776134161      -43.4320183704       17.9784063105  MEMB      136             0.0000000000
     16252       136  POPC      O14           -47.5764576813      -43.7327793709       20.3381313228  MEMB      136             0.0000000000
     16253       136  POPC      O12           -46.9890815363      -45.6761378309       18.9195659115  MEMB      136             0.0000000000
     16254       136  POPC      O11           -48.7509991447      -44.3498138063       18.0541981722  MEMB      136             0.0000000000
     16255       136  POPC      C1            -50.0129553852      -43.7226953803       18.3824003144  MEMB      136             0.0000000000
     16256       136  POPC      HA            -49.8513078641      -42.7540660320       18.9019659743  MEMB      136             0.0000000000
     16257       136  POPC      HB            -50.6157617244      -44.5110996137       18.8817642394  MEMB      136             0.0000000000
     16258       136  POPC      C2            -50.7796715474      -43.4385091102       17.0388058192  MEMB      136             0.0000000000
     16259       136  POPC      HS            -51.8613091802      -43.3533927261       17.2778372883  MEMB      136             0.0000000000
     16260       136  POPC      O21           -50.6875098194      -44.5091594544       16.0858532759  MEMB      136             0.0000000000
     16261       136  POPC      C21           -51.4148628569      -45.5611289803       16.3228660360  MEMB      136             0.0000000000
     16262       136  POPC      O22           -52.2501828871      -45.6632813199       17.2358081424  MEMB      136             0.0000000000
     16263       136  POPC      C22           -51.1450667931      -46.6178194122       15.2756560954  MEMB      136             0.0000000000
     16264       136  POPC      H2R           -50.6974812205      -46.1292927212       14.3838434791  MEMB      136             0.0000000000
     16265       136  POPC      H2S           -52.0773907875      -47.1486180350       14.9869593601  MEMB      136             0.0000000000
     16266       136  POPC      C3            -50.2596694934      -42.2186590764       16.2965446922  MEMB      136             0.0000000000
     16267       136  POPC      HX            -50.2781344988      -41.3357396313       16.9706613818  MEMB      136             0.0000000000
     16268       136  POPC      HY            -50.8558504624      -42.0273731842       15.3787761844  MEMB      136             0.0000000000
     16269       136  POPC      O31           -48.8534701578      -42.3681645995       16.0035505947  MEMB      136             0.0000000000
     16270       136  POPC      C31           -48.5130040967      -42.8007332355       14.7671426423  MEMB      136             0.0000000000
     16271       136  POPC      O32           -49.3122561645      -42.9311746738       13.8546160031  MEMB      136             0.0000000000
     16272       136  POPC      C32           -47.1135731869      -43.2973737322       14.7240600348  MEMB      136             0.0000000000
     16273       136  POPC      H2X           -47.1021681934      -44.2535597224       15.2896566629  MEMB      136             0.0000000000
     16274       136  POPC      H2Y           -46.3971945553      -42.5761683954       15.1723743724  MEMB      136             0.0000000000
     16275       136  POPC      C23           -50.3233430754      -47.7145666563       15.9993045873  MEMB      136             0.0000000000
     16276       136  POPC      H3R           -50.9134361113      -48.0578282860       16.8758220470  MEMB      136             0.0000000000
     16277       136  POPC      H3S           -49.4082472381      -47.3442902547       16.5090259567  MEMB      136             0.0000000000
     16278       136  POPC      C24           -50.1111495980      -49.0440657739       15.2265239967  MEMB      136             0.0000000000
     16279       136  POPC      H4R           -51.0432365030      -49.2983317609       14.6779953263  MEMB      136             0.0000000000
     16280       136  POPC      H4S           -49.9099753445      -49.8949809358       15.9119382510  MEMB      136             0.0000000000
     16281       136  POPC      C25           -48.8767685701      -48.7800543833       14.2758989336  MEMB      136             0.0000000000
     16282       136  POPC      H5R           -48.3426993781      -49.7276042735       14.0495351801  MEMB      136             0.0000000000
     16283       136  POPC      H5S           -48.2049912117      -48.0033784973       14.6999392246  MEMB      136             0.0000000000
     16284       136  POPC      C26           -49.2884808157      -48.2553104822       12.8602772137  MEMB      136             0.0000000000
     16285       136  POPC      H6R           -49.7129374515      -47.2359985294       12.9834054722  MEMB      136             0.0000000000
     16286       136  POPC      H6S           -50.0760180140      -48.9346143422       12.4695694493  MEMB      136             0.0000000000
     16287       136  POPC      C27           -48.1107436517      -48.2903714855       11.8675168386  MEMB      136             0.0000000000
     16288       136  POPC      H7R           -47.5845176851      -49.2630637762       11.7613235898  MEMB      136             0.0000000000
     16289       136  POPC      H7S           -47.3179869857      -47.5403995500       12.0758432478  MEMB      136             0.0000000000
     16290       136  POPC      C28           -48.4576451123      -47.8172342075       10.4283458900  MEMB      136             0.0000000000
     16291       136  POPC      H8R           -47.5064803222      -47.7388771712        9.8596046825  MEMB      136             0.0000000000
     16292       136  POPC      H8S           -49.0347736162      -46.8778435260       10.5654183911  MEMB      136             0.0000000000
     16293       136  POPC      C29           -49.1920027576      -48.9128578492        9.7117896011  MEMB      136             0.0000000000
     16294       136  POPC      H91           -50.2883924659      -48.8558671471        9.6433680532  MEMB      136             0.0000000000
     16295       136  POPC      C210          -48.5604229413      -49.9054883931        9.0555451572  MEMB      136             0.0000000000
     16296       136  POPC      H101          -49.2949313645      -50.6353279099        8.6842880585  MEMB      136             0.0000000000
     16297       136  POPC      C211          -47.1271234443      -50.2043527947        8.9281570093  MEMB      136             0.0000000000
     16298       136  POPC      H11R          -46.9696535371      -51.1830524992        9.4298255248  MEMB      136             0.0000000000
     16299       136  POPC      H11S          -46.4219765339      -49.5520421552        9.4863504330  MEMB      136             0.0000000000
     16300       136  POPC      C212          -46.6903080250      -50.3756777426        7.4209578455  MEMB      136             0.0000000000
     16301       136  POPC      H12R          -47.1894919407      -51.3121395204        7.0920567638  MEMB      136             0.0000000000
     16302       136  POPC      H12S          -45.6109347206      -50.6387348902        7.4123156456  MEMB      136             0.0000000000
     16303       136  POPC      C213          -46.9141635572      -49.1979860244        6.6045146435  MEMB      136             0.0000000000
     16304       136  POPC      H13R          -46.0705880109      -48.5678725485        6.2500320356  MEMB      136             0.0000000000
     16305       136  POPC      H13S          -47.7472276819      -48.5672567274        6.9820147820  MEMB      136             0.0000000000
     16306       136  POPC      C214          -47.6346213532      -49.6086647813        5.3507979305  MEMB      136             0.0000000000
     16307       136  POPC      H14R          -48.2938654014      -50.4733781408        5.5788087322  MEMB      136             0.0000000000
     16308       136  POPC      H14S          -46.9277263996      -50.0793000077        4.6344710626  MEMB      136             0.0000000000
     16309       136  POPC      C215          -48.2780563084      -48.4056864959        4.6213989440  MEMB      136             0.0000000000
     16310       136  POPC      H15R          -48.1080992842      -48.5253069125        3.5300116527  MEMB      136             0.0000000000
     16311       136  POPC      H15S          -47.9091080569      -47.4217736333        4.9821123046  MEMB      136             0.0000000000
     16312       136  POPC      C216          -49.7866608257      -48.5612812004        4.8935541067  MEMB      136             0.0000000000
     16313       136  POPC      H16R          -49.9478314722      -48.0945207712        5.8887821954  MEMB      136             0.0000000000
     16314       136  POPC      H16S          -50.0929436023      -49.6238715581        4.7867189366  MEMB      136             0.0000000000
     16315       136  POPC      C217          -50.5346325756      -47.6426526366        3.9350337397  MEMB      136             0.0000000000
     16316       136  POPC      H17R          -50.3476184626      -46.5598847388        4.0992299903  MEMB      136             0.0000000000
     16317       136  POPC      H17S          -51.5576361256      -47.7803242472        4.3459250433  MEMB      136             0.0000000000
     16318       136  POPC      C218          -50.5866730074      -47.9805139134        2.4313261674  MEMB      136             0.0000000000
     16319       136  POPC      H18R          -49.6513681523      -47.7833938378        1.8650493867  MEMB      136             0.0000000000
     16320       136  POPC      H18S          -51.4084709604      -47.3695913873        2.0003482713  MEMB      136             0.0000000000
     16321       136  POPC      H18T          -50.8461373667      -49.0528379637        2.3004826984  MEMB      136             0.0000000000
     16322       136  POPC      C33           -46.6217779546      -43.5934371576       13.3035492476  MEMB      136             0.0000000000
     16323       136  POPC      H3X           -47.3668107749      -44.3064067892       12.8901229024  MEMB      136             0.0000000000
     16324       136  POPC      H3Y           -45.6608488724      -44.1479545567       13.3622572999  MEMB      136             0.0000000000
     16325       136  POPC      C34           -46.5376082883      -42.3929637579       12.3296796100  MEMB      136             0.0000000000
     16326       136  POPC      H4X           -45.7064713954      -41.6730989343       12.4888256782  MEMB      136             0.0000000000
     16327       136  POPC      H4Y           -47.4013919469      -41.7467672857       12.5954405672  MEMB      136             0.0000000000
     16328       136  POPC      C35           -46.7363600962      -42.7529617564       10.8114214916  MEMB      136             0.0000000000
     16329       136  POPC      H5X           -46.6598777377      -41.7835608827       10.2740825368  MEMB      136             0.0000000000
     16330       136  POPC      H5Y           -47.6935442057      -43.1964786379       10.4629782131  MEMB      136             0.0000000000
     16331       136  POPC      C36           -45.5966679678      -43.6357969903       10.2875661102  MEMB      136             0.0000000000
     16332       136  POPC      H6X           -45.4723805739      -44.4932684053       10.9829913237  MEMB      136             0.0000000000
     16333       136  POPC      H6Y           -44.6358497132      -43.0795764792       10.3296118677  MEMB      136             0.0000000000
     16334       136  POPC      C37           -45.8324541297      -44.2427813661        8.8932536990  MEMB      136             0.0000000000
     16335       136  POPC      H7X           -46.9227010152      -44.4557696024        8.8753996296  MEMB      136             0.0000000000
     16336       136  POPC      H7Y           -45.2990944828      -45.2137524297        8.8092066355  MEMB      136             0.0000000000
     16337       136  POPC      C38           -45.6308146610      -43.3086008437        7.6770725892  MEMB      136             0.0000000000
     16338       136  POPC      H8X           -44.5545390324      -43.0381584521        7.6240350852  MEMB      136             0.0000000000
     16339       136  POPC      H8Y           -46.1769539597      -42.3591203912        7.8629223798  MEMB      136             0.0000000000
     16340       136  POPC      C39           -46.1083627663      -43.8893699436        6.3554852242  MEMB      136             0.0000000000
     16341       136  POPC      H9X           -45.5598642890      -44.7742990651        5.9677084881  MEMB      136             0.0000000000
     16342       136  POPC      H9Y           -45.7612212435      -43.1239521591        5.6288839086  MEMB      136             0.0000000000
     16343       136  POPC      C310          -47.6272240454      -43.9561404551        6.3399306395  MEMB      136             0.0000000000
     16344       136  POPC      H10X          -48.1009831556      -43.1316736889        6.9144985346  MEMB      136             0.0000000000
     16345       136  POPC      H10Y          -47.9500635025      -44.8638733459        6.8932088257  MEMB      136             0.0000000000
     16346       136  POPC      C311          -48.2188119420      -44.1650567884        4.9867044627  MEMB      136             0.0000000000
     16347       136  POPC      H11X          -49.2000672248      -44.6779660698        5.0782653197  MEMB      136             0.0000000000
     16348       136  POPC      H11Y          -47.5565389354      -44.8467293192        4.4113452756  MEMB      136             0.0000000000
     16349       136  POPC      C312          -48.4712449498      -42.8618853583        4.2195050333  MEMB      136             0.0000000000
     16350       136  POPC      H12X          -47.4663337592      -42.4115031727        4.0724326391  MEMB      136             0.0000000000
     16351       136  POPC      H12Y          -49.2169761338      -42.2364683438        4.7552842015  MEMB      136             0.0000000000
     16352       136  POPC      C313          -49.0165589492      -43.2159049637        2.8512923515  MEMB      136             0.0000000000
     16353       136  POPC      H13X          -49.5405467787      -42.3092196589        2.4802397573  MEMB      136             0.0000000000
     16354       136  POPC      H13Y          -49.6379320743      -44.1341154077        2.7798393851  MEMB      136             0.0000000000
     16355       136  POPC      C314          -47.8276285428      -43.3626780195        1.8657262118  MEMB      136             0.0000000000
     16356       136  POPC      H14X          -46.9054532337      -43.8135822726        2.2906971474  MEMB      136             0.0000000000
     16357       136  POPC      H14Y          -47.6875463804      -42.3394915334        1.4561084424  MEMB      136             0.0000000000
     16358       136  POPC      C315          -48.0255978843      -44.2697233119        0.6506894859  MEMB      136             0.0000000000
     16359       136  POPC      H15X          -47.8071406925      -45.3143999187        0.9593133117  MEMB      136             0.0000000000
     16360       136  POPC      H15Y          -47.2202471744      -43.9975091366       -0.0645944752  MEMB      136             0.0000000000
     16361       136  POPC      C316          -49.3867150001      -44.2347327312       -0.1873640518  MEMB      136             0.0000000000
     16362       136  POPC      H16X          -49.6148363586      -43.2137143025       -0.5612677373  MEMB      136             0.0000000000
     16363       136  POPC      H16Y          -50.1222826125      -44.5093460773        0.5986695461  MEMB      136             0.0000000000
     16364       136  POPC      H16Z          -49.4032244891      -45.0412037226       -0.9513372803  MEMB      136             0.0000000000
     16365       137  POPC      N             -50.9211749311       40.4631530446       17.7189310411  MEMB      137             0.0000000000
     16366       137  POPC      C12           -52.3424614151       39.9216045778       18.0643753868  MEMB      137             0.0000000000
     16367       137  POPC      H12A          -52.3739961849       38.8845777187       17.7644075281  MEMB      137             0.0000000000
     16368       137  POPC      H12B          -53.0355674661       40.5498949084       17.5246948084  MEMB      137             0.0000000000
     16369       137  POPC      C13           -49.7888285437       39.5711379142       18.1796604036  MEMB      137             0.0000000000
     16370       137  POPC      H13A          -48.7908971441       39.8776430663       17.9029168540  MEMB      137             0.0000000000
     16371       137  POPC      H13B          -49.8541602609       39.6228985102       19.2564392361  MEMB      137             0.0000000000
     16372       137  POPC      H13C          -50.0018369710       38.5591569531       17.8683371533  MEMB      137             0.0000000000
     16373       137  POPC      C14           -50.8842072096       40.4898007229       16.2049399135  MEMB      137             0.0000000000
     16374       137  POPC      H14A          -51.3146781486       39.5509568623       15.8892392709  MEMB      137             0.0000000000
     16375       137  POPC      H14B          -51.4454717778       41.3010710824       15.7653692127  MEMB      137             0.0000000000
     16376       137  POPC      H14C          -49.8621284098       40.4848989985       15.8560401800  MEMB      137             0.0000000000
     16377       137  POPC      C15           -50.6472626763       41.8802264140       18.2132280855  MEMB      137             0.0000000000
     16378       137  POPC      H15A          -49.7392276582       42.2424075913       17.7542101782  MEMB      137             0.0000000000
     16379       137  POPC      H15B          -50.5163573079       41.8125083008       19.2831243357  MEMB      137             0.0000000000
     16380       137  POPC      H15C          -51.5073207482       42.4885796893       17.9753070504  MEMB      137             0.0000000000
     16381       137  POPC      C11           -52.7310339100       39.9475096980       19.5854242971  MEMB      137             0.0000000000
     16382       137  POPC      H11A          -52.0102061679       39.2415054074       20.0504902153  MEMB      137             0.0000000000
     16383       137  POPC      H11B          -53.6984740416       39.4045401291       19.6451305816  MEMB      137             0.0000000000
     16384       137  POPC      P             -54.0205073294       42.1076137615       20.2532661183  MEMB      137             0.0000000000
     16385       137  POPC      O13           -53.5474901752       43.5339897462       20.2948164225  MEMB      137             0.0000000000
     16386       137  POPC      O14           -54.9059125479       41.5501384407       21.3380583488  MEMB      137             0.0000000000
     16387       137  POPC      O12           -52.6545477328       41.2147615243       20.2568656017  MEMB      137             0.0000000000
     16388       137  POPC      O11           -54.6412927384       41.9032116705       18.8904343268  MEMB      137             0.0000000000
     16389       137  POPC      C1            -55.7991676683       41.1483126724       18.7448871551  MEMB      137             0.0000000000
     16390       137  POPC      HA            -56.7413759680       41.5752820457       19.1501792676  MEMB      137             0.0000000000
     16391       137  POPC      HB            -55.6053196016       40.1784373372       19.2509361848  MEMB      137             0.0000000000
     16392       137  POPC      C2            -56.2129915192       40.9430773764       17.2969211303  MEMB      137             0.0000000000
     16393       137  POPC      HS            -57.2245524842       40.4902100295       17.3742298064  MEMB      137             0.0000000000
     16394       137  POPC      O21           -55.2113724440       40.0325773927       16.7560946702  MEMB      137             0.0000000000
     16395       137  POPC      C21           -55.4549816701       39.5750696930       15.5316200778  MEMB      137             0.0000000000
     16396       137  POPC      O22           -56.4893112119       39.7251544465       14.8868683575  MEMB      137             0.0000000000
     16397       137  POPC      C22           -54.2802326577       38.6859752416       15.1708789949  MEMB      137             0.0000000000
     16398       137  POPC      H2R           -54.2505170000       37.7123155431       15.7051305750  MEMB      137             0.0000000000
     16399       137  POPC      H2S           -53.3822541719       39.1851310588       15.5937253876  MEMB      137             0.0000000000
     16400       137  POPC      C3            -56.3391864365       42.3055802559       16.4739151776  MEMB      137             0.0000000000
     16401       137  POPC      HX            -56.8628747708       42.9718832783       17.1923242557  MEMB      137             0.0000000000
     16402       137  POPC      HY            -57.0432640808       42.1725470873       15.6248579334  MEMB      137             0.0000000000
     16403       137  POPC      O31           -55.0242753687       42.7842265744       16.0296489418  MEMB      137             0.0000000000
     16404       137  POPC      C31           -54.9565990626       44.1095712112       15.7432885391  MEMB      137             0.0000000000
     16405       137  POPC      O32           -55.9187371592       44.8260823457       15.7131858826  MEMB      137             0.0000000000
     16406       137  POPC      C32           -53.5108504767       44.5610857717       15.4705074455  MEMB      137             0.0000000000
     16407       137  POPC      H2X           -52.8534672949       43.6910318622       15.6830508130  MEMB      137             0.0000000000
     16408       137  POPC      H2Y           -53.2892222799       45.3555033619       16.2148881619  MEMB      137             0.0000000000
     16409       137  POPC      C23           -54.1874391485       38.6446414900       13.6392153889  MEMB      137             0.0000000000
     16410       137  POPC      H3R           -53.9661526852       39.6398257265       13.1976702959  MEMB      137             0.0000000000
     16411       137  POPC      H3S           -55.1040627676       38.2574507686       13.1450435789  MEMB      137             0.0000000000
     16412       137  POPC      C24           -53.0990926169       37.6960182036       13.1427322706  MEMB      137             0.0000000000
     16413       137  POPC      H4R           -53.4713180411       36.6582732936       13.0054196619  MEMB      137             0.0000000000
     16414       137  POPC      H4S           -52.3140480759       37.5755366871       13.9195915543  MEMB      137             0.0000000000
     16415       137  POPC      C25           -52.4877828000       38.0984967324       11.8207186206  MEMB      137             0.0000000000
     16416       137  POPC      H5R           -51.6868403158       37.4592839194       11.3915112106  MEMB      137             0.0000000000
     16417       137  POPC      H5S           -51.9749991364       39.0600898577       12.0368498549  MEMB      137             0.0000000000
     16418       137  POPC      C26           -53.5386086179       38.3433701348       10.6492410609  MEMB      137             0.0000000000
     16419       137  POPC      H6R           -54.4661005135       38.7815987605       11.0758975952  MEMB      137             0.0000000000
     16420       137  POPC      H6S           -53.8812804791       37.3625665393       10.2556415220  MEMB      137             0.0000000000
     16421       137  POPC      C27           -52.9554475308       39.3015451846        9.4791130636  MEMB      137             0.0000000000
     16422       137  POPC      H7R           -52.1210661313       38.7706653301        8.9728564811  MEMB      137             0.0000000000
     16423       137  POPC      H7S           -52.5192796655       40.0579127299       10.1661252779  MEMB      137             0.0000000000
     16424       137  POPC      C28           -54.0036675218       39.7903144728        8.4591109493  MEMB      137             0.0000000000
     16425       137  POPC      H8R           -54.3605477240       38.8595064971        7.9686481375  MEMB      137             0.0000000000
     16426       137  POPC      H8S           -53.5150661620       40.3011186055        7.6019828545  MEMB      137             0.0000000000
     16427       137  POPC      C29           -55.1897306631       40.5120619583        8.9361449830  MEMB      137             0.0000000000
     16428       137  POPC      H91           -56.1274554003       39.9857400187        9.1677860812  MEMB      137             0.0000000000
     16429       137  POPC      C210          -55.3949313990       41.8476129417        9.0624940521  MEMB      137             0.0000000000
     16430       137  POPC      H101          -56.4067673313       42.0819408977        9.4248180649  MEMB      137             0.0000000000
     16431       137  POPC      C211          -54.5270528234       43.0402259740        8.7801494808  MEMB      137             0.0000000000
     16432       137  POPC      H11R          -53.5072490856       42.8249669956        9.1648377531  MEMB      137             0.0000000000
     16433       137  POPC      H11S          -54.7471522549       44.0431814146        9.2043641543  MEMB      137             0.0000000000
     16434       137  POPC      C212          -54.4529038358       43.2660146717        7.2510925586  MEMB      137             0.0000000000
     16435       137  POPC      H12R          -54.3587606675       42.2561105144        6.7977143070  MEMB      137             0.0000000000
     16436       137  POPC      H12S          -53.6060130130       43.9417667433        7.0052135189  MEMB      137             0.0000000000
     16437       137  POPC      C213          -55.7316163925       43.9879789066        6.7514942896  MEMB      137             0.0000000000
     16438       137  POPC      H13R          -55.9259324531       44.9307898857        7.3061742234  MEMB      137             0.0000000000
     16439       137  POPC      H13S          -56.6566509048       43.3751056307        6.8064323309  MEMB      137             0.0000000000
     16440       137  POPC      C214          -55.4920776232       44.1922507411        5.2982362291  MEMB      137             0.0000000000
     16441       137  POPC      H14R          -54.5033511729       44.6793637938        5.1587299435  MEMB      137             0.0000000000
     16442       137  POPC      H14S          -56.2560780261       44.8988417999        4.9091947303  MEMB      137             0.0000000000
     16443       137  POPC      C215          -55.5577346841       42.9372321455        4.3694593366  MEMB      137             0.0000000000
     16444       137  POPC      H15R          -55.3193117698       41.9497763427        4.8193562193  MEMB      137             0.0000000000
     16445       137  POPC      H15S          -54.8232189267       43.0571514694        3.5445792871  MEMB      137             0.0000000000
     16446       137  POPC      C216          -56.8968850742       42.6521551205        3.6405842442  MEMB      137             0.0000000000
     16447       137  POPC      H16R          -57.4817754152       43.5602537000        3.3806207416  MEMB      137             0.0000000000
     16448       137  POPC      H16S          -57.6130690509       42.1272140277        4.3082965422  MEMB      137             0.0000000000
     16449       137  POPC      C217          -56.6745380623       41.7754844454        2.3690880484  MEMB      137             0.0000000000
     16450       137  POPC      H17R          -56.1682723817       40.8095918965        2.5813799364  MEMB      137             0.0000000000
     16451       137  POPC      H17S          -56.1313773467       42.2855398037        1.5449878968  MEMB      137             0.0000000000
     16452       137  POPC      C218          -57.9852645986       41.2585376828        1.6616845371  MEMB      137             0.0000000000
     16453       137  POPC      H18R          -57.7440983142       40.6264054818        0.7804533088  MEMB      137             0.0000000000
     16454       137  POPC      H18S          -58.4548613672       42.2161131513        1.3504785158  MEMB      137             0.0000000000
     16455       137  POPC      H18T          -58.6038173183       40.7241433030        2.4141045098  MEMB      137             0.0000000000
     16456       137  POPC      C33           -53.4588508644       45.1029316945       14.0812482259  MEMB      137             0.0000000000
     16457       137  POPC      H3X           -54.0951621919       46.0121739868       14.1332823287  MEMB      137             0.0000000000
     16458       137  POPC      H3Y           -53.8370375427       44.3811400269       13.3260576502  MEMB      137             0.0000000000
     16459       137  POPC      C34           -52.0664231067       45.5906042196       13.5103794389  MEMB      137             0.0000000000
     16460       137  POPC      H4X           -51.6690715093       46.4871810507       14.0324739029  MEMB      137             0.0000000000
     16461       137  POPC      H4Y           -52.2332530793       45.7886631554       12.4299804744  MEMB      137             0.0000000000
     16462       137  POPC      C35           -50.9699356778       44.5927444220       13.5256106174  MEMB      137             0.0000000000
     16463       137  POPC      H5X           -50.7915584441       44.1696714288       14.5372981572  MEMB      137             0.0000000000
     16464       137  POPC      H5Y           -50.0281728400       45.1388480840       13.3038571147  MEMB      137             0.0000000000
     16465       137  POPC      C36           -51.1674960136       43.3279019877       12.6420767040  MEMB      137             0.0000000000
     16466       137  POPC      H6X           -52.2389215789       43.4081469311       12.3593591171  MEMB      137             0.0000000000
     16467       137  POPC      H6Y           -51.0434253551       42.3956641609       13.2335664644  MEMB      137             0.0000000000
     16468       137  POPC      C37           -50.3786789936       43.1957260185       11.3889014460  MEMB      137             0.0000000000
     16469       137  POPC      H7X           -50.5531936822       42.1869986952       10.9572358613  MEMB      137             0.0000000000
     16470       137  POPC      H7Y           -49.2867516865       43.2853583497       11.5732429741  MEMB      137             0.0000000000
     16471       137  POPC      C38           -50.6637323485       44.2601576516       10.3470164012  MEMB      137             0.0000000000
     16472       137  POPC      H8X           -50.4209201560       45.2816622394       10.7101840364  MEMB      137             0.0000000000
     16473       137  POPC      H8Y           -51.7191963861       44.3700644699       10.0180218996  MEMB      137             0.0000000000
     16474       137  POPC      C39           -49.7758436132       44.1143325128        9.0753297208  MEMB      137             0.0000000000
     16475       137  POPC      H9X           -48.6901985940       44.0552817921        9.3038220702  MEMB      137             0.0000000000
     16476       137  POPC      H9Y           -49.8636628177       45.0738445533        8.5222060706  MEMB      137             0.0000000000
     16477       137  POPC      C310          -50.1993581465       43.0036674101        8.0759897969  MEMB      137             0.0000000000
     16478       137  POPC      H10X          -51.2344649514       43.2367051111        7.7464924365  MEMB      137             0.0000000000
     16479       137  POPC      H10Y          -50.2476490938       42.0457263312        8.6366482202  MEMB      137             0.0000000000
     16480       137  POPC      C311          -49.3817077824       42.8206309125        6.7703598461  MEMB      137             0.0000000000
     16481       137  POPC      H11X          -48.3104733540       42.6722098667        7.0248178292  MEMB      137             0.0000000000
     16482       137  POPC      H11Y          -49.6740802751       43.6177759744        6.0538414448  MEMB      137             0.0000000000
     16483       137  POPC      C312          -49.8000565942       41.6146769504        5.9129617235  MEMB      137             0.0000000000
     16484       137  POPC      H12X          -49.5028678202       40.6699903715        6.4165162530  MEMB      137             0.0000000000
     16485       137  POPC      H12Y          -49.1135421054       41.5981890642        5.0396079354  MEMB      137             0.0000000000
     16486       137  POPC      C313          -51.2990011427       41.6095464929        5.6369079676  MEMB      137             0.0000000000
     16487       137  POPC      H13X          -51.4027821913       42.3788254752        4.8420744269  MEMB      137             0.0000000000
     16488       137  POPC      H13Y          -51.8650436421       41.8220128079        6.5689883027  MEMB      137             0.0000000000
     16489       137  POPC      C314          -51.9304760402       40.3072593313        5.1499170072  MEMB      137             0.0000000000
     16490       137  POPC      H14X          -52.9622832553       40.3271212118        5.5613779976  MEMB      137             0.0000000000
     16491       137  POPC      H14Y          -51.3946809531       39.5089100118        5.7065884989  MEMB      137             0.0000000000
     16492       137  POPC      C315          -51.8833591792       40.0089369419        3.6089081756  MEMB      137             0.0000000000
     16493       137  POPC      H15X          -52.4079499201       39.0326924452        3.6868333310  MEMB      137             0.0000000000
     16494       137  POPC      H15Y          -50.8508912232       39.9416173516        3.2041872617  MEMB      137             0.0000000000
     16495       137  POPC      C316          -52.7505427532       40.9039664725        2.7079670429  MEMB      137             0.0000000000
     16496       137  POPC      H16X          -53.8197793303       40.6137232700        2.7905086872  MEMB      137             0.0000000000
     16497       137  POPC      H16Y          -52.5395268450       40.8914637752        1.6172623826  MEMB      137             0.0000000000
     16498       137  POPC      H16Z          -52.6922317240       41.9464636651        3.0876003034  MEMB      137             0.0000000000
     16499       138  POPC      N             -48.3614077401       45.6271647436       19.1022912084  MEMB      138             0.0000000000
     16500       138  POPC      C12           -47.8328390250       46.4468012403       17.9525610344  MEMB      138             0.0000000000
     16501       138  POPC      H12A          -48.4704477948       47.2651684460       17.6523441370  MEMB      138             0.0000000000
     16502       138  POPC      H12B          -47.9688966361       45.7512239087       17.1376618556  MEMB      138             0.0000000000
     16503       138  POPC      C13           -47.5145303564       44.4158738081       19.4173825901  MEMB      138             0.0000000000
     16504       138  POPC      H13A          -47.3932199019       43.9295814867       18.4607198478  MEMB      138             0.0000000000
     16505       138  POPC      H13B          -46.5553253398       44.7658406224       19.7693042852  MEMB      138             0.0000000000
     16506       138  POPC      H13C          -47.9645192643       43.7990812971       20.1812393289  MEMB      138             0.0000000000
     16507       138  POPC      C14           -48.4923425230       46.4338756826       20.3827914295  MEMB      138             0.0000000000
     16508       138  POPC      H14A          -49.0236661260       45.7254681638       21.0010583987  MEMB      138             0.0000000000
     16509       138  POPC      H14B          -47.5699156865       46.7008138230       20.8770306302  MEMB      138             0.0000000000
     16510       138  POPC      H14C          -49.0185250885       47.3588616359       20.1985818552  MEMB      138             0.0000000000
     16511       138  POPC      C15           -49.7856674914       45.1862830519       18.8415071984  MEMB      138             0.0000000000
     16512       138  POPC      H15A          -50.3431898305       44.7938517174       19.6791027018  MEMB      138             0.0000000000
     16513       138  POPC      H15B          -49.7880086493       44.4349016744       18.0657362060  MEMB      138             0.0000000000
     16514       138  POPC      H15C          -50.2480208874       46.0686656788       18.4243379672  MEMB      138             0.0000000000
     16515       138  POPC      C11           -46.3428935971       46.9814662628       18.0927001419  MEMB      138             0.0000000000
     16516       138  POPC      H11A          -46.0474865203       47.2968686069       17.0691880812  MEMB      138             0.0000000000
     16517       138  POPC      H11B          -45.6702883428       46.1137695940       18.2630692043  MEMB      138             0.0000000000
     16518       138  POPC      P             -44.7967826738       48.7714518768       19.0842933616  MEMB      138             0.0000000000
     16519       138  POPC      O13           -43.6579402855       47.8141308636       18.9439150833  MEMB      138             0.0000000000
     16520       138  POPC      O14           -44.8657520786       49.6012842629       20.3055215443  MEMB      138             0.0000000000
     16521       138  POPC      O12           -46.1949662559       48.0029371875       19.0626284113  MEMB      138             0.0000000000
     16522       138  POPC      O11           -44.7790240818       49.6875439848       17.8144079943  MEMB      138             0.0000000000
     16523       138  POPC      C1            -45.8547391374       50.6078752918       17.7210562620  MEMB      138             0.0000000000
     16524       138  POPC      HA            -45.6051934436       51.5067606481       18.3244241893  MEMB      138             0.0000000000
     16525       138  POPC      HB            -46.8950507364       50.2742787205       17.9230119760  MEMB      138             0.0000000000
     16526       138  POPC      C2            -45.9941683002       51.1240462135       16.2398801991  MEMB      138             0.0000000000
     16527       138  POPC      HS            -46.8312542208       51.8154715074       16.0042118675  MEMB      138             0.0000000000
     16528       138  POPC      O21           -46.1005445066       50.0629160168       15.3085462805  MEMB      138             0.0000000000
     16529       138  POPC      C21           -47.1946174784       49.3437070343       15.1543888209  MEMB      138             0.0000000000
     16530       138  POPC      O22           -48.2635980127       49.6306796558       15.7312691214  MEMB      138             0.0000000000
     16531       138  POPC      C22           -46.8063465610       48.2372063777       14.2160864842  MEMB      138             0.0000000000
     16532       138  POPC      H2R           -46.9051195235       47.3554075461       14.8846640023  MEMB      138             0.0000000000
     16533       138  POPC      H2S           -45.7866795101       48.3471054803       13.7888600194  MEMB      138             0.0000000000
     16534       138  POPC      C3            -44.7171341332       51.9388127298       15.8013061082  MEMB      138             0.0000000000
     16535       138  POPC      HX            -44.6341239394       52.8200547485       16.4727543073  MEMB      138             0.0000000000
     16536       138  POPC      HY            -45.0454524744       52.2594468635       14.7895146897  MEMB      138             0.0000000000
     16537       138  POPC      O31           -43.5405489663       51.1116669681       15.7148016901  MEMB      138             0.0000000000
     16538       138  POPC      C31           -43.2684638047       50.4457682554       14.5970865950  MEMB      138             0.0000000000
     16539       138  POPC      O32           -43.8449025168       50.6148113220       13.5483930706  MEMB      138             0.0000000000
     16540       138  POPC      C32           -42.2944593574       49.3670001905       14.8609629763  MEMB      138             0.0000000000
     16541       138  POPC      H2X           -42.0138436719       49.3288437345       15.9352627723  MEMB      138             0.0000000000
     16542       138  POPC      H2Y           -41.4505070795       49.4896690852       14.1489110075  MEMB      138             0.0000000000
     16543       138  POPC      C23           -47.7667913417       48.0746651056       13.0767387528  MEMB      138             0.0000000000
     16544       138  POPC      H3R           -48.7771013956       47.7557589754       13.4112435136  MEMB      138             0.0000000000
     16545       138  POPC      H3S           -47.4522181162       47.2918266735       12.3538771571  MEMB      138             0.0000000000
     16546       138  POPC      C24           -47.7327566276       49.3501627437       12.2375290492  MEMB      138             0.0000000000
     16547       138  POPC      H4R           -46.6593910710       49.5323633836       12.0161463991  MEMB      138             0.0000000000
     16548       138  POPC      H4S           -48.1364554005       50.1572520663       12.8855683761  MEMB      138             0.0000000000
     16549       138  POPC      C25           -48.6316988255       49.2395596931       10.9987759351  MEMB      138             0.0000000000
     16550       138  POPC      H5R           -49.5313489302       48.6751461073       11.3249483549  MEMB      138             0.0000000000
     16551       138  POPC      H5S           -48.0267474492       48.5572073615       10.3641503060  MEMB      138             0.0000000000
     16552       138  POPC      C26           -48.9565913137       50.5555245120       10.2727930995  MEMB      138             0.0000000000
     16553       138  POPC      H6R           -48.0311788651       51.0850274569        9.9604475388  MEMB      138             0.0000000000
     16554       138  POPC      H6S           -49.3625048830       51.2238300578       11.0620472785  MEMB      138             0.0000000000
     16555       138  POPC      C27           -50.0891461889       50.4484930085        9.2260102570  MEMB      138             0.0000000000
     16556       138  POPC      H7R           -50.2845580356       51.5030287328        8.9360284244  MEMB      138             0.0000000000
     16557       138  POPC      H7S           -51.0507806530       49.9910265206        9.5427196320  MEMB      138             0.0000000000
     16558       138  POPC      C28           -49.7308698112       49.5443726944        7.9724477231  MEMB      138             0.0000000000
     16559       138  POPC      H8R           -50.5681344311       49.3146373585        7.2792439414  MEMB      138             0.0000000000
     16560       138  POPC      H8S           -49.6083421709       48.6050029246        8.5528717371  MEMB      138             0.0000000000
     16561       138  POPC      C29           -48.4369743423       49.8718466253        7.3261386734  MEMB      138             0.0000000000
     16562       138  POPC      H91           -48.1041304018       50.8690480849        7.6498731499  MEMB      138             0.0000000000
     16563       138  POPC      C210          -47.8185252033       49.2162390543        6.2577010923  MEMB      138             0.0000000000
     16564       138  POPC      H101          -46.8857371980       49.6206618932        5.8377620015  MEMB      138             0.0000000000
     16565       138  POPC      C211          -48.4162173395       47.9319934044        5.6420097851  MEMB      138             0.0000000000
     16566       138  POPC      H11R          -49.4208060213       47.7079182941        6.0602354912  MEMB      138             0.0000000000
     16567       138  POPC      H11S          -47.8985399043       47.0128512359        5.9905902930  MEMB      138             0.0000000000
     16568       138  POPC      C212          -48.4383971541       47.8336775230        4.0653548303  MEMB      138             0.0000000000
     16569       138  POPC      H12R          -48.9334519716       46.8494468654        3.9220636706  MEMB      138             0.0000000000
     16570       138  POPC      H12S          -47.4508439063       47.7941089409        3.5579163155  MEMB      138             0.0000000000
     16571       138  POPC      C213          -49.3506625021       48.8724256333        3.3949992579  MEMB      138             0.0000000000
     16572       138  POPC      H13R          -50.1790688471       49.0415347423        4.1157388195  MEMB      138             0.0000000000
     16573       138  POPC      H13S          -49.7526800505       48.3087628391        2.5260983089  MEMB      138             0.0000000000
     16574       138  POPC      C214          -48.6495993276       50.1878259264        2.9209327588  MEMB      138             0.0000000000
     16575       138  POPC      H14R          -47.7457229162       49.6983914870        2.4992904471  MEMB      138             0.0000000000
     16576       138  POPC      H14S          -48.4189657440       50.8405969715        3.7898514574  MEMB      138             0.0000000000
     16577       138  POPC      C215          -49.3690591216       50.8134031110        1.6816195990  MEMB      138             0.0000000000
     16578       138  POPC      H15R          -49.6380096343       49.9335094060        1.0589052872  MEMB      138             0.0000000000
     16579       138  POPC      H15S          -48.7146075565       51.5774348354        1.2101642595  MEMB      138             0.0000000000
     16580       138  POPC      C216          -50.6429783363       51.4999113807        2.1998483053  MEMB      138             0.0000000000
     16581       138  POPC      H16R          -50.3825984205       52.3637594618        2.8481461572  MEMB      138             0.0000000000
     16582       138  POPC      H16S          -51.1800937305       50.7147727678        2.7737698405  MEMB      138             0.0000000000
     16583       138  POPC      C217          -51.5663969897       52.1767875584        1.1435389992  MEMB      138             0.0000000000
     16584       138  POPC      H17R          -51.0023982041       52.9420694745        0.5685856075  MEMB      138             0.0000000000
     16585       138  POPC      H17S          -52.3497529048       52.7488804728        1.6851876314  MEMB      138             0.0000000000
     16586       138  POPC      C218          -52.3168728413       51.2561481142        0.2388701757  MEMB      138             0.0000000000
     16587       138  POPC      H18R          -53.1590050402       51.8518666725       -0.1737488792  MEMB      138             0.0000000000
     16588       138  POPC      H18S          -52.7666878236       50.3599073371        0.7171377982  MEMB      138             0.0000000000
     16589       138  POPC      H18T          -51.8341116705       51.0889919826       -0.7477004472  MEMB      138             0.0000000000
     16590       138  POPC      C33           -42.9901123361       48.0254627409       14.6199825326  MEMB      138             0.0000000000
     16591       138  POPC      H3X           -43.9879776319       47.9908839438       15.1072099215  MEMB      138             0.0000000000
     16592       138  POPC      H3Y           -42.4535682166       47.2129715697       15.1550523969  MEMB      138             0.0000000000
     16593       138  POPC      C34           -42.8939193933       47.5114621405       13.1738729701  MEMB      138             0.0000000000
     16594       138  POPC      H4X           -41.8482422052       47.5443330045       12.7999748726  MEMB      138             0.0000000000
     16595       138  POPC      H4Y           -43.5005971816       48.0950489740       12.4488287604  MEMB      138             0.0000000000
     16596       138  POPC      C35           -43.3537883840       46.0113010534       13.0094294426  MEMB      138             0.0000000000
     16597       138  POPC      H5X           -44.2941481458       45.8630932160       13.5822113464  MEMB      138             0.0000000000
     16598       138  POPC      H5Y           -42.5571683387       45.3819792726       13.4607294391  MEMB      138             0.0000000000
     16599       138  POPC      C36           -43.5761407537       45.6442874040       11.5294493368  MEMB      138             0.0000000000
     16600       138  POPC      H6X           -43.3875026441       44.5644682801       11.3485422893  MEMB      138             0.0000000000
     16601       138  POPC      H6Y           -42.8011712453       46.1156501872       10.8879197055  MEMB      138             0.0000000000
     16602       138  POPC      C37           -44.9923231146       45.9193917404       11.0574311988  MEMB      138             0.0000000000
     16603       138  POPC      H7X           -45.1938448181       46.9692707766       11.3598615326  MEMB      138             0.0000000000
     16604       138  POPC      H7Y           -45.5967099995       45.1207474910       11.5382688408  MEMB      138             0.0000000000
     16605       138  POPC      C38           -45.3048842178       45.6772964571        9.5616480075  MEMB      138             0.0000000000
     16606       138  POPC      H8X           -46.3661130750       45.9176117768        9.3372320038  MEMB      138             0.0000000000
     16607       138  POPC      H8Y           -44.9794712335       44.6354837432        9.3541543156  MEMB      138             0.0000000000
     16608       138  POPC      C39           -44.4459093829       46.5210288849        8.6337823830  MEMB      138             0.0000000000
     16609       138  POPC      H9X           -43.4296531897       46.0727815805        8.6089031369  MEMB      138             0.0000000000
     16610       138  POPC      H9Y           -44.4980824549       47.5275289888        9.1012823971  MEMB      138             0.0000000000
     16611       138  POPC      C310          -44.9904603722       46.6013423017        7.2459577209  MEMB      138             0.0000000000
     16612       138  POPC      H10X          -46.0844814975       46.7942129459        7.2614408679  MEMB      138             0.0000000000
     16613       138  POPC      H10Y          -44.8396590901       45.5961667212        6.7974029953  MEMB      138             0.0000000000
     16614       138  POPC      C311          -44.3263333918       47.6762017663        6.3333948223  MEMB      138             0.0000000000
     16615       138  POPC      H11X          -43.2461412593       47.6076211191        6.5839993700  MEMB      138             0.0000000000
     16616       138  POPC      H11Y          -44.6917705944       48.6791278827        6.6414788797  MEMB      138             0.0000000000
     16617       138  POPC      C312          -44.4442237020       47.6064925155        4.7822135108  MEMB      138             0.0000000000
     16618       138  POPC      H12X          -45.5408290882       47.6635008010        4.6133114641  MEMB      138             0.0000000000
     16619       138  POPC      H12Y          -44.1742322217       46.5729911778        4.4767627182  MEMB      138             0.0000000000
     16620       138  POPC      C313          -43.7323617843       48.7742170645        4.1360024902  MEMB      138             0.0000000000
     16621       138  POPC      H13X          -42.6878027329       48.7035509917        4.5077869410  MEMB      138             0.0000000000
     16622       138  POPC      H13Y          -44.1542614510       49.7526811112        4.4505332370  MEMB      138             0.0000000000
     16623       138  POPC      C314          -43.6300568905       48.6933912378        2.6174286670  MEMB      138             0.0000000000
     16624       138  POPC      H14X          -43.2115837172       47.6956435828        2.3650379813  MEMB      138             0.0000000000
     16625       138  POPC      H14Y          -42.8175727616       49.4045714941        2.3558697622  MEMB      138             0.0000000000
     16626       138  POPC      C315          -44.9428692363       49.0819543434        1.9043092984  MEMB      138             0.0000000000
     16627       138  POPC      H15X          -44.9952324869       50.1622153397        2.1585049858  MEMB      138             0.0000000000
     16628       138  POPC      H15Y          -45.7597405340       48.4805612904        2.3574845499  MEMB      138             0.0000000000
     16629       138  POPC      C316          -44.9506349838       48.7985989922        0.3928248093  MEMB      138             0.0000000000
     16630       138  POPC      H16X          -46.0067873658       48.8079675911        0.0481859776  MEMB      138             0.0000000000
     16631       138  POPC      H16Y          -44.5623058217       47.7644645951        0.2741348699  MEMB      138             0.0000000000
     16632       138  POPC      H16Z          -44.3654647206       49.4756875705       -0.2655413478  MEMB      138             0.0000000000
     16633       139  POPC      N              49.3433448307       47.2823016658       19.6024005133  MEMB      139             0.0000000000
     16634       139  POPC      C12            47.8926374934       47.6299197915       19.4480669887  MEMB      139             0.0000000000
     16635       139  POPC      H12A           47.8062442372       48.7054521806       19.4946121446  MEMB      139             0.0000000000
     16636       139  POPC      H12B           47.3581980668       47.2796745677       20.3187579474  MEMB      139             0.0000000000
     16637       139  POPC      C13            49.8972644579       47.9790006546       20.8574041120  MEMB      139             0.0000000000
     16638       139  POPC      H13A           49.7146151397       49.0335501267       20.7126128913  MEMB      139             0.0000000000
     16639       139  POPC      H13B           49.2477237417       47.6657745655       21.6613855456  MEMB      139             0.0000000000
     16640       139  POPC      H13C           50.9381402769       47.8713163411       21.1245773577  MEMB      139             0.0000000000
     16641       139  POPC      C14            49.4523691711       45.7954526038       19.8934317663  MEMB      139             0.0000000000
     16642       139  POPC      H14A           49.1142831018       45.1767286140       19.0753374167  MEMB      139             0.0000000000
     16643       139  POPC      H14B           50.4858127566       45.5070523432       20.0168005049  MEMB      139             0.0000000000
     16644       139  POPC      H14C           49.0564423350       45.4735650272       20.8452879384  MEMB      139             0.0000000000
     16645       139  POPC      C15            50.1625382431       47.6760777519       18.4024907611  MEMB      139             0.0000000000
     16646       139  POPC      H15A           51.1699817974       47.9679982467       18.6598619897  MEMB      139             0.0000000000
     16647       139  POPC      H15B           49.7497718003       48.5848560475       17.9900033697  MEMB      139             0.0000000000
     16648       139  POPC      H15C           50.0474707731       46.8778326311       17.6841841698  MEMB      139             0.0000000000
     16649       139  POPC      C11            47.1463535123       47.1123160853       18.1804563688  MEMB      139             0.0000000000
     16650       139  POPC      H11A           47.6375656418       47.4956707231       17.2606352692  MEMB      139             0.0000000000
     16651       139  POPC      H11B           46.1279733368       47.5525167253       18.2391616191  MEMB      139             0.0000000000
     16652       139  POPC      P              45.9078996398       44.8217059433       18.5816666810  MEMB      139             0.0000000000
     16653       139  POPC      O13            45.4288366609       45.3709810213       19.8387620828  MEMB      139             0.0000000000
     16654       139  POPC      O14            46.1692422936       43.3815904340       18.6430429068  MEMB      139             0.0000000000
     16655       139  POPC      O12            47.1627915969       45.7120853383       18.0229006568  MEMB      139             0.0000000000
     16656       139  POPC      O11            44.6748198984       45.0722235650       17.5293771623  MEMB      139             0.0000000000
     16657       139  POPC      C1             44.7217275106       44.3600302325       16.2439461589  MEMB      139             0.0000000000
     16658       139  POPC      HA             43.6837405837       44.4509628141       15.8584138618  MEMB      139             0.0000000000
     16659       139  POPC      HB             44.6682663463       43.2665456714       16.4330351695  MEMB      139             0.0000000000
     16660       139  POPC      C2             45.7428560452       44.8008562480       15.1893105003  MEMB      139             0.0000000000
     16661       139  POPC      HS             46.7086217560       44.7959126876       15.7384854231  MEMB      139             0.0000000000
     16662       139  POPC      O21            45.5040877670       46.2045659492       14.8942215779  MEMB      139             0.0000000000
     16663       139  POPC      C21            46.2812713593       46.9019734137       14.1283358734  MEMB      139             0.0000000000
     16664       139  POPC      O22            47.4373748711       46.6902335363       13.7685121232  MEMB      139             0.0000000000
     16665       139  POPC      C22            45.5415560717       48.1936287969       13.8368665057  MEMB      139             0.0000000000
     16666       139  POPC      H2R            45.8117485362       48.9440165125       14.6103234175  MEMB      139             0.0000000000
     16667       139  POPC      H2S            44.4733507049       48.1260806102       13.5390488561  MEMB      139             0.0000000000
     16668       139  POPC      C3             45.7741539226       43.9641077654       13.8119746412  MEMB      139             0.0000000000
     16669       139  POPC      HX             45.9381895024       42.9030742701       14.0976679733  MEMB      139             0.0000000000
     16670       139  POPC      HY             46.5993905666       44.4873714928       13.2832963849  MEMB      139             0.0000000000
     16671       139  POPC      O31            44.5569478165       44.2114418071       13.1003993824  MEMB      139             0.0000000000
     16672       139  POPC      C31            44.5673307130       44.1235910692       11.8376470858  MEMB      139             0.0000000000
     16673       139  POPC      O32            45.4889058158       43.7604929867       11.1088122750  MEMB      139             0.0000000000
     16674       139  POPC      C32            43.2872553006       44.5910432090       11.2709380538  MEMB      139             0.0000000000
     16675       139  POPC      H2X            43.0709552012       45.6320568826       11.5931580808  MEMB      139             0.0000000000
     16676       139  POPC      H2Y            42.4076214062       44.0182681196       11.6349348504  MEMB      139             0.0000000000
     16677       139  POPC      C23            46.1383756543       48.8163978385       12.5122253653  MEMB      139             0.0000000000
     16678       139  POPC      H3R            47.2303374911       49.0069975469       12.5871386989  MEMB      139             0.0000000000
     16679       139  POPC      H3S            45.5849868495       49.7789620368       12.5516248702  MEMB      139             0.0000000000
     16680       139  POPC      C24            45.6739684936       48.3390620450       11.1505708730  MEMB      139             0.0000000000
     16681       139  POPC      H4R            45.9950318496       49.0723675973       10.3801797545  MEMB      139             0.0000000000
     16682       139  POPC      H4S            44.5730677420       48.2508127963       11.0299455719  MEMB      139             0.0000000000
     16683       139  POPC      C25            46.3113080402       46.9809111429       10.6137760709  MEMB      139             0.0000000000
     16684       139  POPC      H5R            45.7398367003       46.7147241932        9.6989614230  MEMB      139             0.0000000000
     16685       139  POPC      H5S            46.1649120057       46.2190118572       11.4090107768  MEMB      139             0.0000000000
     16686       139  POPC      C26            47.7754247388       47.1223909253       10.1739765389  MEMB      139             0.0000000000
     16687       139  POPC      H6R            48.4211098055       47.5034619174       10.9938529801  MEMB      139             0.0000000000
     16688       139  POPC      H6S            47.8553247527       47.8790835749        9.3644381439  MEMB      139             0.0000000000
     16689       139  POPC      C27            48.2574262418       45.7381449671        9.6528286841  MEMB      139             0.0000000000
     16690       139  POPC      H7R            47.5127397476       45.3780533666        8.9111425497  MEMB      139             0.0000000000
     16691       139  POPC      H7S            48.2828507860       44.9233841022       10.4077049426  MEMB      139             0.0000000000
     16692       139  POPC      C28            49.6767165229       45.7282260028        8.9656206645  MEMB      139             0.0000000000
     16693       139  POPC      H8R            49.9398952820       44.6528452901        8.8728077609  MEMB      139             0.0000000000
     16694       139  POPC      H8S            50.4518676199       46.0142589833        9.7083504712  MEMB      139             0.0000000000
     16695       139  POPC      C29            49.8122751141       46.5206057333        7.6737612688  MEMB      139             0.0000000000
     16696       139  POPC      H91            50.2479713024       47.5268554014        7.7611119830  MEMB      139             0.0000000000
     16697       139  POPC      C210           49.3127812100       46.1515021151        6.4377343685  MEMB      139             0.0000000000
     16698       139  POPC      H101           49.5089425079       46.7832370451        5.5588533901  MEMB      139             0.0000000000
     16699       139  POPC      C211           48.5703497944       44.8933455785        6.0504320936  MEMB      139             0.0000000000
     16700       139  POPC      H11R           47.7285798533       44.9676827781        5.3291711678  MEMB      139             0.0000000000
     16701       139  POPC      H11S           48.0599304928       44.4291515082        6.9212467577  MEMB      139             0.0000000000
     16702       139  POPC      C212           49.5928841605       43.7640943660        5.6603121732  MEMB      139             0.0000000000
     16703       139  POPC      H12R           50.4669220935       43.6213587823        6.3311368269  MEMB      139             0.0000000000
     16704       139  POPC      H12S           50.0191992106       44.1302907375        4.7019396773  MEMB      139             0.0000000000
     16705       139  POPC      C213           48.8300292568       42.4336431725        5.4420321992  MEMB      139             0.0000000000
     16706       139  POPC      H13R           48.4875808632       42.1606289215        6.4630671936  MEMB      139             0.0000000000
     16707       139  POPC      H13S           49.6215542033       41.6589265438        5.3547240110  MEMB      139             0.0000000000
     16708       139  POPC      C214           47.6792418496       42.3141334517        4.5023724324  MEMB      139             0.0000000000
     16709       139  POPC      H14R           46.8595366949       42.9114638352        4.9558041810  MEMB      139             0.0000000000
     16710       139  POPC      H14S           47.4400382497       41.2293833391        4.4818795137  MEMB      139             0.0000000000
     16711       139  POPC      C215           47.9700883358       42.8239444207        3.0948156471  MEMB      139             0.0000000000
     16712       139  POPC      H15R           48.7132118344       42.2017220381        2.5517427746  MEMB      139             0.0000000000
     16713       139  POPC      H15S           48.4067324777       43.8436046761        3.0319206153  MEMB      139             0.0000000000
     16714       139  POPC      C216           46.6895358551       42.7606789795        2.1646710941  MEMB      139             0.0000000000
     16715       139  POPC      H16R           46.3589929328       41.7038975171        2.0737050991  MEMB      139             0.0000000000
     16716       139  POPC      H16S           47.0036258050       42.9957762800        1.1252498773  MEMB      139             0.0000000000
     16717       139  POPC      C217           45.6552982024       43.7494504083        2.6010719088  MEMB      139             0.0000000000
     16718       139  POPC      H17R           46.1287051223       44.6292052973        3.0871145064  MEMB      139             0.0000000000
     16719       139  POPC      H17S           45.0648744519       43.3086045956        3.4325607309  MEMB      139             0.0000000000
     16720       139  POPC      C218           44.5603676431       44.1693173625        1.5573981501  MEMB      139             0.0000000000
     16721       139  POPC      H18R           44.9424865049       44.5352929881        0.5804807644  MEMB      139             0.0000000000
     16722       139  POPC      H18S           43.9734736970       44.9657545038        2.0629321962  MEMB      139             0.0000000000
     16723       139  POPC      H18T           43.8674870992       43.3155593625        1.3982306067  MEMB      139             0.0000000000
     16724       139  POPC      C33            43.1594155043       44.5762182278        9.6957044930  MEMB      139             0.0000000000
     16725       139  POPC      H3X            43.1184143073       43.5342258940        9.3124391757  MEMB      139             0.0000000000
     16726       139  POPC      H3Y            44.0543694343       45.0716695593        9.2622228354  MEMB      139             0.0000000000
     16727       139  POPC      C34            41.8427536234       45.2892732719        9.2631782393  MEMB      139             0.0000000000
     16728       139  POPC      H4X            41.9145615663       46.3732927773        9.4957010137  MEMB      139             0.0000000000
     16729       139  POPC      H4Y            41.0870230448       44.7479639066        9.8715995383  MEMB      139             0.0000000000
     16730       139  POPC      C35            41.6309821641       45.1196024382        7.7615801626  MEMB      139             0.0000000000
     16731       139  POPC      H5X            40.5671917856       45.3332254632        7.5227587705  MEMB      139             0.0000000000
     16732       139  POPC      H5Y            41.7617966443       44.0422961942        7.5236314245  MEMB      139             0.0000000000
     16733       139  POPC      C36            42.5485007806       45.9915300484        6.8869811630  MEMB      139             0.0000000000
     16734       139  POPC      H6X            43.6040524043       45.7315724566        7.1162274169  MEMB      139             0.0000000000
     16735       139  POPC      H6Y            42.3558221478       47.0385056100        7.2048456447  MEMB      139             0.0000000000
     16736       139  POPC      C37            42.2628829286       45.8589183969        5.4025924162  MEMB      139             0.0000000000
     16737       139  POPC      H7X            41.4176704035       46.5492522340        5.1943225643  MEMB      139             0.0000000000
     16738       139  POPC      H7Y            41.9679124336       44.7994319714        5.2451050272  MEMB      139             0.0000000000
     16739       139  POPC      C38            43.4029283172       46.2530549972        4.4621643161  MEMB      139             0.0000000000
     16740       139  POPC      H8X            43.1319983957       46.2206992001        3.3851912985  MEMB      139             0.0000000000
     16741       139  POPC      H8Y            44.1626620371       45.4492158214        4.5668944774  MEMB      139             0.0000000000
     16742       139  POPC      C39            43.8835237590       47.6636063434        4.6675478896  MEMB      139             0.0000000000
     16743       139  POPC      H9X            44.1220465280       47.9415940676        5.7164282752  MEMB      139             0.0000000000
     16744       139  POPC      H9Y            43.2626324810       48.4795401774        4.2396847420  MEMB      139             0.0000000000
     16745       139  POPC      C310           45.1082223119       47.9148545438        3.7925080433  MEMB      139             0.0000000000
     16746       139  POPC      H10X           44.8130238177       47.6730262739        2.7491008392  MEMB      139             0.0000000000
     16747       139  POPC      H10Y           45.9195702751       47.3176999697        4.2609543057  MEMB      139             0.0000000000
     16748       139  POPC      C311           45.6727820477       49.2829560275        3.7280745365  MEMB      139             0.0000000000
     16749       139  POPC      H11X           46.2265297906       49.5269862297        4.6598117678  MEMB      139             0.0000000000
     16750       139  POPC      H11Y           44.9047835297       50.0742670122        3.5926993641  MEMB      139             0.0000000000
     16751       139  POPC      C312           46.5710637471       49.4033398198        2.5126197171  MEMB      139             0.0000000000
     16752       139  POPC      H12X           46.8566047612       50.4765835479        2.5432010030  MEMB      139             0.0000000000
     16753       139  POPC      H12Y           46.1369675162       49.4044347303        1.4899366962  MEMB      139             0.0000000000
     16754       139  POPC      C313           47.8522063726       48.5354724563        2.5835055271  MEMB      139             0.0000000000
     16755       139  POPC      H13X           47.8791734519       48.2212116475        3.6487907623  MEMB      139             0.0000000000
     16756       139  POPC      H13Y           48.7148368990       49.1963171716        2.3522610899  MEMB      139             0.0000000000
     16757       139  POPC      C314           47.6909219438       47.3584985768        1.5227900028  MEMB      139             0.0000000000
     16758       139  POPC      H14X           47.8680981364       47.8034562351        0.5203212489  MEMB      139             0.0000000000
     16759       139  POPC      H14Y           46.6502792156       46.9785054050        1.6063899837  MEMB      139             0.0000000000
     16760       139  POPC      C315           48.6470655622       46.1883828883        1.7310093203  MEMB      139             0.0000000000
     16761       139  POPC      H15X           48.3381690331       45.4757390726        0.9366278283  MEMB      139             0.0000000000
     16762       139  POPC      H15Y           48.4817585478       45.7763092696        2.7494350957  MEMB      139             0.0000000000
     16763       139  POPC      C316           50.1287133937       46.4953150463        1.4552735825  MEMB      139             0.0000000000
     16764       139  POPC      H16X           50.3106474028       46.7914489109        0.4000365612  MEMB      139             0.0000000000
     16765       139  POPC      H16Y           50.7802231625       45.5975974005        1.3923527855  MEMB      139             0.0000000000
     16766       139  POPC      H16Z           50.5235444722       47.3341555753        2.0674635113  MEMB      139             0.0000000000
     16767       140  POPC      N             -36.9871270504      -59.1980501457       19.9885805665  MEMB      140             0.0000000000
     16768       140  POPC      C12           -37.3276619923      -57.7659904230       19.5209235804  MEMB      140             0.0000000000
     16769       140  POPC      H12A          -36.8868438572      -57.1575033275       20.2966960347  MEMB      140             0.0000000000
     16770       140  POPC      H12B          -38.3908029449      -57.6991835066       19.6988792100  MEMB      140             0.0000000000
     16771       140  POPC      C13           -35.5320129949      -59.4999254479       20.0072574781  MEMB      140             0.0000000000
     16772       140  POPC      H13A          -35.2864811067      -60.5180894647       20.2708030018  MEMB      140             0.0000000000
     16773       140  POPC      H13B          -35.2060336919      -59.3035846853       18.9965212728  MEMB      140             0.0000000000
     16774       140  POPC      H13C          -35.0313452811      -58.8324587824       20.6929833641  MEMB      140             0.0000000000
     16775       140  POPC      C14           -37.5109867401      -59.4222598671       21.3706620232  MEMB      140             0.0000000000
     16776       140  POPC      H14A          -38.5908096839      -59.4038507886       21.3772725765  MEMB      140             0.0000000000
     16777       140  POPC      H14B          -37.1758214948      -60.4158543594       21.6291856774  MEMB      140             0.0000000000
     16778       140  POPC      H14C          -37.0578886673      -58.6951601920       22.0282548193  MEMB      140             0.0000000000
     16779       140  POPC      C15           -37.6237817772      -60.1666467567       19.0226395250  MEMB      140             0.0000000000
     16780       140  POPC      H15A          -36.9547577535      -60.0545315869       18.1822604799  MEMB      140             0.0000000000
     16781       140  POPC      H15B          -38.6509670369      -59.8649482013       18.8802719491  MEMB      140             0.0000000000
     16782       140  POPC      H15C          -37.6112689919      -61.1716180674       19.4179570631  MEMB      140             0.0000000000
     16783       140  POPC      C11           -36.8731463372      -57.3230270384       18.1961157415  MEMB      140             0.0000000000
     16784       140  POPC      H11A          -37.3638897942      -56.3438460104       18.0098460943  MEMB      140             0.0000000000
     16785       140  POPC      H11B          -37.2495550703      -58.0243078334       17.4209752970  MEMB      140             0.0000000000
     16786       140  POPC      P             -34.7452301225      -55.8112929637       18.2440923985  MEMB      140             0.0000000000
     16787       140  POPC      O13           -34.5263354079      -55.8473015629       19.6875234947  MEMB      140             0.0000000000
     16788       140  POPC      O14           -35.5345458706      -54.6734471964       17.6813111020  MEMB      140             0.0000000000
     16789       140  POPC      O12           -35.4735038656      -57.1311225239       17.9210083737  MEMB      140             0.0000000000
     16790       140  POPC      O11           -33.4281769221      -55.9932274099       17.3598857163  MEMB      140             0.0000000000
     16791       140  POPC      C1            -32.9025784557      -57.2468822621       16.9995640356  MEMB      140             0.0000000000
     16792       140  POPC      HA            -33.3374683680      -58.0955497412       17.5696126240  MEMB      140             0.0000000000
     16793       140  POPC      HB            -31.8391970308      -57.2363422933       17.3211689801  MEMB      140             0.0000000000
     16794       140  POPC      C2            -33.0388593806      -57.4551813624       15.4482063432  MEMB      140             0.0000000000
     16795       140  POPC      HS            -32.3035968751      -56.8267631174       14.9015797529  MEMB      140             0.0000000000
     16796       140  POPC      O21           -34.4226382262      -57.0818331731       15.1561437936  MEMB      140             0.0000000000
     16797       140  POPC      C21           -34.7069111952      -55.9477451084       14.6748090224  MEMB      140             0.0000000000
     16798       140  POPC      O22           -33.9009060277      -55.0292851675       14.4416182936  MEMB      140             0.0000000000
     16799       140  POPC      C22           -36.2045667463      -55.7724657269       14.3290610833  MEMB      140             0.0000000000
     16800       140  POPC      H2R           -36.4068804573      -54.6801186107       14.3420054565  MEMB      140             0.0000000000
     16801       140  POPC      H2S           -36.8869254639      -56.3177563426       15.0156218691  MEMB      140             0.0000000000
     16802       140  POPC      C3            -32.7890935617      -58.9497809730       14.9623307995  MEMB      140             0.0000000000
     16803       140  POPC      HX            -33.2644885277      -59.5765234588       15.7468779748  MEMB      140             0.0000000000
     16804       140  POPC      HY            -31.6835709663      -59.0336494746       14.8908687784  MEMB      140             0.0000000000
     16805       140  POPC      O31           -33.4269862997      -59.2174889040       13.6988760814  MEMB      140             0.0000000000
     16806       140  POPC      C31           -32.7572609576      -60.0174273851       12.8179809193  MEMB      140             0.0000000000
     16807       140  POPC      O32           -31.6985025772      -60.4860098222       13.0254221369  MEMB      140             0.0000000000
     16808       140  POPC      C32           -33.6583080219      -60.1341719434       11.5761556387  MEMB      140             0.0000000000
     16809       140  POPC      H2X           -32.9811406349      -60.2142936712       10.6990319730  MEMB      140             0.0000000000
     16810       140  POPC      H2Y           -34.2875967192      -59.2407379368       11.3759242357  MEMB      140             0.0000000000
     16811       140  POPC      C23           -36.5077709205      -56.4933848611       13.0063798413  MEMB      140             0.0000000000
     16812       140  POPC      H3R           -37.5928352999      -56.4339259444       12.7752496539  MEMB      140             0.0000000000
     16813       140  POPC      H3S           -36.1469748991      -57.5337204973       13.1541937881  MEMB      140             0.0000000000
     16814       140  POPC      C24           -35.7678199337      -56.0029402267       11.7667900442  MEMB      140             0.0000000000
     16815       140  POPC      H4R           -34.7187270471      -56.3686110313       11.7699488657  MEMB      140             0.0000000000
     16816       140  POPC      H4S           -35.8072272083      -54.8967126607       11.8618101792  MEMB      140             0.0000000000
     16817       140  POPC      C25           -36.3115121244      -56.2850843739       10.4298082636  MEMB      140             0.0000000000
     16818       140  POPC      H5R           -37.3378212622      -55.8813113762       10.2957269783  MEMB      140             0.0000000000
     16819       140  POPC      H5S           -36.5626649808      -57.3232582281       10.1241306880  MEMB      140             0.0000000000
     16820       140  POPC      C26           -35.3666456415      -55.7617329359        9.3186340732  MEMB      140             0.0000000000
     16821       140  POPC      H6R           -35.0694649309      -54.7256652374        9.5880202833  MEMB      140             0.0000000000
     16822       140  POPC      H6S           -36.0386602939      -55.6326848926        8.4433833313  MEMB      140             0.0000000000
     16823       140  POPC      C27           -34.1784903038      -56.7234610299        9.0365596787  MEMB      140             0.0000000000
     16824       140  POPC      H7R           -34.5576016705      -57.7662238589        9.0934919510  MEMB      140             0.0000000000
     16825       140  POPC      H7S           -33.3790794939      -56.5586406383        9.7902818427  MEMB      140             0.0000000000
     16826       140  POPC      C28           -33.4717881073      -56.5430138190        7.6796553683  MEMB      140             0.0000000000
     16827       140  POPC      H8R           -32.6274883611      -57.2577660434        7.5766586665  MEMB      140             0.0000000000
     16828       140  POPC      H8S           -33.1181448587      -55.4900042235        7.7003542989  MEMB      140             0.0000000000
     16829       140  POPC      C29           -34.4970283537      -56.7458736400        6.5395648954  MEMB      140             0.0000000000
     16830       140  POPC      H91           -35.0626832066      -57.6890331921        6.5615779410  MEMB      140             0.0000000000
     16831       140  POPC      C210          -34.7902271306      -55.8486513590        5.5848958427  MEMB      140             0.0000000000
     16832       140  POPC      H101          -35.6243666657      -56.0945500012        4.9112904512  MEMB      140             0.0000000000
     16833       140  POPC      C211          -34.1545369911      -54.4536211050        5.3761162078  MEMB      140             0.0000000000
     16834       140  POPC      H11R          -33.7945613026      -54.0241813487        6.3354493204  MEMB      140             0.0000000000
     16835       140  POPC      H11S          -34.9075196808      -53.7066820697        5.0453293733  MEMB      140             0.0000000000
     16836       140  POPC      C212          -32.8776373916      -54.4922479528        4.6436882688  MEMB      140             0.0000000000
     16837       140  POPC      H12R          -32.2869118279      -55.2278133724        5.2304655690  MEMB      140             0.0000000000
     16838       140  POPC      H12S          -32.3729980312      -53.5142569825        4.7959849082  MEMB      140             0.0000000000
     16839       140  POPC      C213          -32.8592807250      -54.8620680508        3.1015085998  MEMB      140             0.0000000000
     16840       140  POPC      H13R          -33.5218271075      -54.2002048892        2.5037709425  MEMB      140             0.0000000000
     16841       140  POPC      H13S          -33.2962769462      -55.8521047857        2.8501475889  MEMB      140             0.0000000000
     16842       140  POPC      C214          -31.3476581317      -54.7601243652        2.7801406067  MEMB      140             0.0000000000
     16843       140  POPC      H14R          -30.8166771271      -55.4459390273        3.4744308920  MEMB      140             0.0000000000
     16844       140  POPC      H14S          -31.1076764948      -53.6936019646        2.9782826387  MEMB      140             0.0000000000
     16845       140  POPC      C215          -30.8614189766      -55.1156657541        1.3881636699  MEMB      140             0.0000000000
     16846       140  POPC      H15R          -30.6347277698      -56.2006184394        1.3119416348  MEMB      140             0.0000000000
     16847       140  POPC      H15S          -29.9259077390      -54.5524663524        1.1833577632  MEMB      140             0.0000000000
     16848       140  POPC      C216          -31.8778213209      -54.8320319344        0.3065145868  MEMB      140             0.0000000000
     16849       140  POPC      H16R          -32.0571410297      -53.7386822738        0.3886861892  MEMB      140             0.0000000000
     16850       140  POPC      H16S          -32.8219615427      -55.4124420128        0.3842607917  MEMB      140             0.0000000000
     16851       140  POPC      C217          -31.5566481894      -55.0162706889       -1.2134889092  MEMB      140             0.0000000000
     16852       140  POPC      H17R          -30.6138657730      -54.4639433400       -1.4145274328  MEMB      140             0.0000000000
     16853       140  POPC      H17S          -32.4378200327      -54.5043184820       -1.6559390244  MEMB      140             0.0000000000
     16854       140  POPC      C218          -31.5054378312      -56.5246142987       -1.7036621340  MEMB      140             0.0000000000
     16855       140  POPC      H18R          -31.6265856129      -56.6310630135       -2.8028953284  MEMB      140             0.0000000000
     16856       140  POPC      H18S          -32.4484674917      -56.9096665724       -1.2600968854  MEMB      140             0.0000000000
     16857       140  POPC      H18T          -30.7836960519      -57.3081564892       -1.3882711259  MEMB      140             0.0000000000
     16858       140  POPC      C33           -34.4185438635      -61.3497675877       11.7089575488  MEMB      140             0.0000000000
     16859       140  POPC      H3X           -35.1310420650      -61.1937608786       12.5470087453  MEMB      140             0.0000000000
     16860       140  POPC      H3Y           -33.7125449616      -62.1876627497       11.8928541587  MEMB      140             0.0000000000
     16861       140  POPC      C34           -35.2905373715      -61.6956872902       10.5109919943  MEMB      140             0.0000000000
     16862       140  POPC      H4X           -35.6371004056      -62.7411373493       10.6567621941  MEMB      140             0.0000000000
     16863       140  POPC      H4Y           -34.6024490591      -61.6487012571        9.6399877521  MEMB      140             0.0000000000
     16864       140  POPC      C35           -36.5464773077      -60.7799035371       10.2700998334  MEMB      140             0.0000000000
     16865       140  POPC      H5X           -36.1896249057      -59.7328494672       10.1668770861  MEMB      140             0.0000000000
     16866       140  POPC      H5Y           -37.1779039365      -60.7460878090       11.1835977650  MEMB      140             0.0000000000
     16867       140  POPC      C36           -37.3775032399      -61.1057323468        9.0209060707  MEMB      140             0.0000000000
     16868       140  POPC      H6X           -38.2095584502      -60.3695322168        9.0247404773  MEMB      140             0.0000000000
     16869       140  POPC      H6Y           -37.7310124168      -62.1511818952        9.1489181754  MEMB      140             0.0000000000
     16870       140  POPC      C37           -36.6600775905      -60.8466347962        7.6596603209  MEMB      140             0.0000000000
     16871       140  POPC      H7X           -35.8325674456      -61.5654398011        7.4783677565  MEMB      140             0.0000000000
     16872       140  POPC      H7Y           -36.2709494465      -59.8078841147        7.7220911400  MEMB      140             0.0000000000
     16873       140  POPC      C38           -37.5193521054      -61.2180817533        6.4004720450  MEMB      140             0.0000000000
     16874       140  POPC      H8X           -37.9343982216      -62.2201980817        6.6409317462  MEMB      140             0.0000000000
     16875       140  POPC      H8Y           -36.7628951182      -61.2824294059        5.5893297046  MEMB      140             0.0000000000
     16876       140  POPC      C39           -38.6551933348      -60.2585655798        6.0442288904  MEMB      140             0.0000000000
     16877       140  POPC      H9X           -39.4128601292      -60.3058262738        6.8554179287  MEMB      140             0.0000000000
     16878       140  POPC      H9Y           -39.1735813461      -60.5905927383        5.1193761845  MEMB      140             0.0000000000
     16879       140  POPC      C310          -38.1259352211      -58.8655389751        5.8440261123  MEMB      140             0.0000000000
     16880       140  POPC      H10X          -37.4814155649      -58.6435803357        6.7213222429  MEMB      140             0.0000000000
     16881       140  POPC      H10Y          -39.0023327924      -58.1847002093        5.8960557252  MEMB      140             0.0000000000
     16882       140  POPC      C311          -37.4608590383      -58.4080944857        4.5158273914  MEMB      140             0.0000000000
     16883       140  POPC      H11X          -37.2178284055      -57.3410435236        4.7072939357  MEMB      140             0.0000000000
     16884       140  POPC      H11Y          -38.1434978320      -58.6375467948        3.6698504914  MEMB      140             0.0000000000
     16885       140  POPC      C312          -36.1618439130      -59.1920722958        4.0152508115  MEMB      140             0.0000000000
     16886       140  POPC      H12X          -36.4641012512      -60.2156177205        3.7065171007  MEMB      140             0.0000000000
     16887       140  POPC      H12Y          -35.5136761058      -59.3108442134        4.9097297141  MEMB      140             0.0000000000
     16888       140  POPC      C313          -35.3101770637      -58.5848331560        2.8359908944  MEMB      140             0.0000000000
     16889       140  POPC      H13X          -34.3674713335      -59.1705363365        2.7852098670  MEMB      140             0.0000000000
     16890       140  POPC      H13Y          -35.0832744176      -57.5104738639        3.0050721336  MEMB      140             0.0000000000
     16891       140  POPC      C314          -36.0540985312      -58.5381628512        1.4624141172  MEMB      140             0.0000000000
     16892       140  POPC      H14X          -37.1606374176      -58.4566909081        1.5194683594  MEMB      140             0.0000000000
     16893       140  POPC      H14Y          -35.9498103996      -59.5839912403        1.1022927212  MEMB      140             0.0000000000
     16894       140  POPC      C315          -35.5280870023      -57.4656606457        0.5552757075  MEMB      140             0.0000000000
     16895       140  POPC      H15X          -34.4410069238      -57.3007580037        0.7146020021  MEMB      140             0.0000000000
     16896       140  POPC      H15Y          -35.9677792482      -56.5093429829        0.9108716540  MEMB      140             0.0000000000
     16897       140  POPC      C316          -35.9328294274      -57.5774374549       -0.9035627916  MEMB      140             0.0000000000
     16898       140  POPC      H16X          -35.4192415880      -58.4572575478       -1.3468071470  MEMB      140             0.0000000000
     16899       140  POPC      H16Y          -35.5817727570      -56.6407642668       -1.3870124730  MEMB      140             0.0000000000
     16900       140  POPC      H16Z          -37.0209489176      -57.7489128631       -1.0481764332  MEMB      140             0.0000000000
     16901       141  POPC      N             -59.2119979481       36.8222453562       19.9162175985  MEMB      141             0.0000000000
     16902       141  POPC      C12           -58.0965748319       36.7469971331       18.8312987187  MEMB      141             0.0000000000
     16903       141  POPC      H12A          -57.8393709217       37.7425136448       18.5008546401  MEMB      141             0.0000000000
     16904       141  POPC      H12B          -58.5767171111       36.2161731337       18.0225409353  MEMB      141             0.0000000000
     16905       141  POPC      C13           -60.4655639533       37.3019347100       19.2399935052  MEMB      141             0.0000000000
     16906       141  POPC      H13A          -61.1208567506       37.4991372020       20.0755188729  MEMB      141             0.0000000000
     16907       141  POPC      H13B          -60.1691544363       38.2174237406       18.7496657500  MEMB      141             0.0000000000
     16908       141  POPC      H13C          -60.6604396099       36.5159849530       18.5253563148  MEMB      141             0.0000000000
     16909       141  POPC      C14           -59.4316407067       35.5510180938       20.5915318659  MEMB      141             0.0000000000
     16910       141  POPC      H14A          -59.9646505698       34.8372038914       19.9809831766  MEMB      141             0.0000000000
     16911       141  POPC      H14B          -58.5081755361       35.1216833914       20.9510922746  MEMB      141             0.0000000000
     16912       141  POPC      H14C          -60.1599770655       35.8063146269       21.3470116879  MEMB      141             0.0000000000
     16913       141  POPC      C15           -58.8314325693       37.7766722937       20.9881365581  MEMB      141             0.0000000000
     16914       141  POPC      H15A          -58.8583689031       38.7601260846       20.5426109701  MEMB      141             0.0000000000
     16915       141  POPC      H15B          -57.8937583720       37.5424671298       21.4701274929  MEMB      141             0.0000000000
     16916       141  POPC      H15C          -59.6146712428       37.8445394491       21.7286304425  MEMB      141             0.0000000000
     16917       141  POPC      C11           -56.7630634586       35.9512818302       19.0664545056  MEMB      141             0.0000000000
     16918       141  POPC      H11A          -56.2124214834       36.4479325240       19.8937710749  MEMB      141             0.0000000000
     16919       141  POPC      H11B          -56.1453364818       36.0976035505       18.1546845495  MEMB      141             0.0000000000
     16920       141  POPC      P             -57.4264025133       33.6082154952       18.0830401789  MEMB      141             0.0000000000
     16921       141  POPC      O13           -58.7185558708       34.0826753881       17.5066326414  MEMB      141             0.0000000000
     16922       141  POPC      O14           -57.3954259859       32.2030588877       18.4855363789  MEMB      141             0.0000000000
     16923       141  POPC      O12           -56.9737248083       34.6040944465       19.2980911596  MEMB      141             0.0000000000
     16924       141  POPC      O11           -56.2639193035       33.8124019668       16.9930668895  MEMB      141             0.0000000000
     16925       141  POPC      C1            -55.1509843701       32.9124092298       16.9249535802  MEMB      141             0.0000000000
     16926       141  POPC      HA            -55.1984400688       32.0109837570       17.5726427899  MEMB      141             0.0000000000
     16927       141  POPC      HB            -54.3004591755       33.5858308936       17.1646016246  MEMB      141             0.0000000000
     16928       141  POPC      C2            -54.9227155242       32.4207102804       15.4450554742  MEMB      141             0.0000000000
     16929       141  POPC      HS            -53.9076326307       31.9691266763       15.4451488641  MEMB      141             0.0000000000
     16930       141  POPC      O21           -54.8721332759       33.4231559230       14.4295216669  MEMB      141             0.0000000000
     16931       141  POPC      C21           -54.2793913285       32.9889380143       13.2674020039  MEMB      141             0.0000000000
     16932       141  POPC      O22           -53.8024583963       31.9184078822       13.0016347822  MEMB      141             0.0000000000
     16933       141  POPC      C22           -54.3205346245       34.1915337315       12.2893275661  MEMB      141             0.0000000000
     16934       141  POPC      H2R           -53.5550655400       34.0407517543       11.4983512866  MEMB      141             0.0000000000
     16935       141  POPC      H2S           -54.0935931813       35.1422438983       12.8175018436  MEMB      141             0.0000000000
     16936       141  POPC      C3            -56.0284055541       31.4181592214       15.0375578383  MEMB      141             0.0000000000
     16937       141  POPC      HX            -56.1394020006       30.6982076973       15.8764087465  MEMB      141             0.0000000000
     16938       141  POPC      HY            -55.7120566899       30.8194254453       14.1567841479  MEMB      141             0.0000000000
     16939       141  POPC      O31           -57.2396822976       32.0599094051       14.6622088414  MEMB      141             0.0000000000
     16940       141  POPC      C31           -58.2604716729       31.2387030827       14.4470027340  MEMB      141             0.0000000000
     16941       141  POPC      O32           -58.2113078378       30.0615951589       14.5117427393  MEMB      141             0.0000000000
     16942       141  POPC      C32           -59.5027042768       32.0636831868       14.1490774424  MEMB      141             0.0000000000
     16943       141  POPC      H2X           -59.6911065545       32.7135824343       15.0302451819  MEMB      141             0.0000000000
     16944       141  POPC      H2Y           -60.3214306433       31.3299476955       13.9889532617  MEMB      141             0.0000000000
     16945       141  POPC      C23           -55.7197581007       34.2845234915       11.6482413615  MEMB      141             0.0000000000
     16946       141  POPC      H3R           -56.4626841020       34.6215301111       12.4024355932  MEMB      141             0.0000000000
     16947       141  POPC      H3S           -56.0570322305       33.2476517272       11.4350185968  MEMB      141             0.0000000000
     16948       141  POPC      C24           -55.7477726497       35.1712425244       10.3955867957  MEMB      141             0.0000000000
     16949       141  POPC      H4R           -55.1661192748       36.0545459266       10.7358450107  MEMB      141             0.0000000000
     16950       141  POPC      H4S           -56.7813961191       35.5357844511       10.2137829596  MEMB      141             0.0000000000
     16951       141  POPC      C25           -55.1869668662       34.3997528216        9.1560026478  MEMB      141             0.0000000000
     16952       141  POPC      H5R           -55.7686000674       33.4568953646        9.0720758027  MEMB      141             0.0000000000
     16953       141  POPC      H5S           -54.1248746547       34.0838437416        9.2365182349  MEMB      141             0.0000000000
     16954       141  POPC      C26           -55.3158896813       35.1758768301        7.8013162336  MEMB      141             0.0000000000
     16955       141  POPC      H6R           -56.4008861411       35.2632852577        7.5789122282  MEMB      141             0.0000000000
     16956       141  POPC      H6S           -54.9919552022       34.5865250789        6.9169790697  MEMB      141             0.0000000000
     16957       141  POPC      C27           -54.7446798378       36.6208194252        7.7264982313  MEMB      141             0.0000000000
     16958       141  POPC      H7R           -53.6519186248       36.5157949096        7.8972720330  MEMB      141             0.0000000000
     16959       141  POPC      H7S           -55.3066234821       37.2669658395        8.4343361634  MEMB      141             0.0000000000
     16960       141  POPC      C28           -54.8347918891       37.1357383500        6.2519396565  MEMB      141             0.0000000000
     16961       141  POPC      H8R           -55.8575904189       36.9677103178        5.8519765641  MEMB      141             0.0000000000
     16962       141  POPC      H8S           -54.2420387307       36.4404288004        5.6198719860  MEMB      141             0.0000000000
     16963       141  POPC      C29           -54.5249441599       38.6013428257        6.2061415933  MEMB      141             0.0000000000
     16964       141  POPC      H91           -53.4633192747       38.8831764218        6.2654915881  MEMB      141             0.0000000000
     16965       141  POPC      C210          -55.4386397632       39.5555230394        5.9716957877  MEMB      141             0.0000000000
     16966       141  POPC      H101          -55.1697543643       40.6220182628        5.9547187849  MEMB      141             0.0000000000
     16967       141  POPC      C211          -56.8819251233       39.4795017615        5.7283511718  MEMB      141             0.0000000000
     16968       141  POPC      H11R          -57.5003623731       40.4022582699        5.7089384287  MEMB      141             0.0000000000
     16969       141  POPC      H11S          -57.3995475376       38.8831536593        6.5098605106  MEMB      141             0.0000000000
     16970       141  POPC      C212          -57.2597961780       38.8339302410        4.3636685921  MEMB      141             0.0000000000
     16971       141  POPC      H12R          -56.8588797300       37.7995090081        4.3040043882  MEMB      141             0.0000000000
     16972       141  POPC      H12S          -56.6777247884       39.3246839045        3.5545493968  MEMB      141             0.0000000000
     16973       141  POPC      C213          -58.7625559098       39.0193330535        4.0320460749  MEMB      141             0.0000000000
     16974       141  POPC      H13R          -59.0340234709       40.0950846149        3.9738673312  MEMB      141             0.0000000000
     16975       141  POPC      H13S          -59.2992626366       38.5944282971        4.9071020110  MEMB      141             0.0000000000
     16976       141  POPC      C214          -59.3049467493       38.2399750592        2.8826168350  MEMB      141             0.0000000000
     16977       141  POPC      H14R          -58.8234938223       38.5656756331        1.9358099047  MEMB      141             0.0000000000
     16978       141  POPC      H14S          -60.3832315600       38.4062862448        2.6729423722  MEMB      141             0.0000000000
     16979       141  POPC      C215          -59.1201423152       36.6775638046        2.9653991611  MEMB      141             0.0000000000
     16980       141  POPC      H15R          -59.5183010858       36.3435812826        3.9473603842  MEMB      141             0.0000000000
     16981       141  POPC      H15S          -58.0098569817       36.6417907844        2.9478551062  MEMB      141             0.0000000000
     16982       141  POPC      C216          -59.8163563274       35.8397440694        1.9541168026  MEMB      141             0.0000000000
     16983       141  POPC      H16R          -60.9196840487       35.8788585459        2.0784507664  MEMB      141             0.0000000000
     16984       141  POPC      H16S          -59.4552326783       34.7974409836        2.0864594598  MEMB      141             0.0000000000
     16985       141  POPC      C217          -59.6049353851       36.3050593563        0.4500701972  MEMB      141             0.0000000000
     16986       141  POPC      H17R          -58.5220654299       36.0818801725        0.3409622087  MEMB      141             0.0000000000
     16987       141  POPC      H17S          -59.9452935303       37.3598721245        0.3736057323  MEMB      141             0.0000000000
     16988       141  POPC      C218          -60.3594533479       35.4453390476       -0.5934922431  MEMB      141             0.0000000000
     16989       141  POPC      H18R          -61.4399453787       35.6503258555       -0.4358892688  MEMB      141             0.0000000000
     16990       141  POPC      H18S          -60.0963328808       34.3838872490       -0.3975087582  MEMB      141             0.0000000000
     16991       141  POPC      H18T          -60.1360294342       35.8814329161       -1.5906002480  MEMB      141             0.0000000000
     16992       141  POPC      C33           -59.3816387132       32.8637504377       12.8138568638  MEMB      141             0.0000000000
     16993       141  POPC      H3X           -58.5631802885       33.6138274040       12.8566493576  MEMB      141             0.0000000000
     16994       141  POPC      H3Y           -60.3482514002       33.4022357579       12.7137844272  MEMB      141             0.0000000000
     16995       141  POPC      C34           -59.2789859156       32.1188385476       11.4286807756  MEMB      141             0.0000000000
     16996       141  POPC      H4X           -60.2032860486       31.5031942251       11.3974949649  MEMB      141             0.0000000000
     16997       141  POPC      H4Y           -58.3585042922       31.4967197146       11.4270460935  MEMB      141             0.0000000000
     16998       141  POPC      C35           -59.1209043413       33.0933375719       10.2497588061  MEMB      141             0.0000000000
     16999       141  POPC      H5X           -58.4482434961       33.9495003358       10.4707425718  MEMB      141             0.0000000000
     17000       141  POPC      H5Y           -60.1168708409       33.4879441394        9.9553830862  MEMB      141             0.0000000000
     17001       141  POPC      C36           -58.6094596725       32.5128237617        8.8520145203  MEMB      141             0.0000000000
     17002       141  POPC      H6X           -57.5984889691       32.0898992944        9.0347538592  MEMB      141             0.0000000000
     17003       141  POPC      H6Y           -58.3871355686       33.4201713938        8.2506717670  MEMB      141             0.0000000000
     17004       141  POPC      C37           -59.5005909079       31.4898245509        8.1788318161  MEMB      141             0.0000000000
     17005       141  POPC      H7X           -60.4231149276       31.9590136140        7.7749361013  MEMB      141             0.0000000000
     17006       141  POPC      H7Y           -59.8112200255       30.8180354365        9.0074032991  MEMB      141             0.0000000000
     17007       141  POPC      C38           -58.7546074240       30.7499510031        7.0938191040  MEMB      141             0.0000000000
     17008       141  POPC      H8X           -59.4006160971       30.0423708131        6.5313920517  MEMB      141             0.0000000000
     17009       141  POPC      H8Y           -58.0028154252       30.1077083764        7.6004292748  MEMB      141             0.0000000000
     17010       141  POPC      C39           -58.1542058393       31.6618066475        5.9808387710  MEMB      141             0.0000000000
     17011       141  POPC      H9X           -57.4517884567       32.4056672852        6.4139689019  MEMB      141             0.0000000000
     17012       141  POPC      H9Y           -59.0132488160       32.2350790336        5.5712957948  MEMB      141             0.0000000000
     17013       141  POPC      C310          -57.4034886608       30.8521693188        5.0058424493  MEMB      141             0.0000000000
     17014       141  POPC      H10X          -58.0355577481       30.0194391184        4.6298503024  MEMB      141             0.0000000000
     17015       141  POPC      H10Y          -56.5205011185       30.2574221929        5.3235373372  MEMB      141             0.0000000000
     17016       141  POPC      C311          -57.0062303476       31.6481381580        3.6973458706  MEMB      141             0.0000000000
     17017       141  POPC      H11X          -58.0047731538       32.0578441749        3.4339552795  MEMB      141             0.0000000000
     17018       141  POPC      H11Y          -56.4909684423       30.9800559498        2.9745092192  MEMB      141             0.0000000000
     17019       141  POPC      C312          -56.1815841341       32.9695679019        3.8049310915  MEMB      141             0.0000000000
     17020       141  POPC      H12X          -55.1915693856       32.6473873280        4.1927346406  MEMB      141             0.0000000000
     17021       141  POPC      H12Y          -56.6611568751       33.6247646645        4.5632507351  MEMB      141             0.0000000000
     17022       141  POPC      C313          -55.9922880928       33.7170418299        2.4632630155  MEMB      141             0.0000000000
     17023       141  POPC      H13X          -56.9448063210       33.9468427777        1.9396011611  MEMB      141             0.0000000000
     17024       141  POPC      H13Y          -55.2764152424       33.1857411066        1.8002641719  MEMB      141             0.0000000000
     17025       141  POPC      C314          -55.3682184796       35.1194050077        2.8111936674  MEMB      141             0.0000000000
     17026       141  POPC      H14X          -54.3892499148       35.0715321934        3.3343082846  MEMB      141             0.0000000000
     17027       141  POPC      H14Y          -56.0406066829       35.5975678053        3.5552201031  MEMB      141             0.0000000000
     17028       141  POPC      C315          -55.2755486421       35.9992337071        1.5505182300  MEMB      141             0.0000000000
     17029       141  POPC      H15X          -56.2770160380       36.0600481811        1.0733539745  MEMB      141             0.0000000000
     17030       141  POPC      H15Y          -54.6517496082       35.4369949020        0.8231368337  MEMB      141             0.0000000000
     17031       141  POPC      C316          -54.6654667638       37.3711954520        1.7877487132  MEMB      141             0.0000000000
     17032       141  POPC      H16X          -53.7781635935       37.2820137043        2.4503649474  MEMB      141             0.0000000000
     17033       141  POPC      H16Y          -55.3845540656       38.0533392950        2.2896575187  MEMB      141             0.0000000000
     17034       141  POPC      H16Z          -54.3853640567       37.8308599681        0.8158563437  MEMB      141             0.0000000000
     17035       142  POPC      N              37.1414482348       58.1255562517       20.6306674430  MEMB      142             0.0000000000
     17036       142  POPC      C12            36.3239557320       57.4484449654       19.5210741637  MEMB      142             0.0000000000
     17037       142  POPC      H12A           35.4832803101       58.1160089948       19.4026555324  MEMB      142             0.0000000000
     17038       142  POPC      H12B           35.9483853203       56.4729597468       19.7926905354  MEMB      142             0.0000000000
     17039       142  POPC      C13            37.8329953191       59.3700038310       20.1610649470  MEMB      142             0.0000000000
     17040       142  POPC      H13A           38.2986788507       59.8374138270       21.0160895020  MEMB      142             0.0000000000
     17041       142  POPC      H13B           38.6594348533       59.1022107794       19.5194384516  MEMB      142             0.0000000000
     17042       142  POPC      H13C           37.0318112981       59.9520666962       19.7301276703  MEMB      142             0.0000000000
     17043       142  POPC      C14            36.1145830763       58.6101599921       21.6518072826  MEMB      142             0.0000000000
     17044       142  POPC      H14A           36.4250886775       59.4706439368       22.2258746606  MEMB      142             0.0000000000
     17045       142  POPC      H14B           35.2007904818       58.9301428913       21.1732737830  MEMB      142             0.0000000000
     17046       142  POPC      H14C           35.9074490369       57.7255638755       22.2357465117  MEMB      142             0.0000000000
     17047       142  POPC      C15            38.1256510155       57.0669141967       21.1669954853  MEMB      142             0.0000000000
     17048       142  POPC      H15A           38.7648345688       57.4754741043       21.9357108332  MEMB      142             0.0000000000
     17049       142  POPC      H15B           38.6802600577       56.6465970468       20.3410763291  MEMB      142             0.0000000000
     17050       142  POPC      H15C           37.6396818749       56.2660304113       21.7044143336  MEMB      142             0.0000000000
     17051       142  POPC      C11            37.0189899973       57.2193317356       18.0963374400  MEMB      142             0.0000000000
     17052       142  POPC      H11A           37.2312868446       58.2141856469       17.6496645590  MEMB      142             0.0000000000
     17053       142  POPC      H11B           36.1837603589       56.8468783731       17.4654722204  MEMB      142             0.0000000000
     17054       142  POPC      P              38.2912538509       55.0161831353       17.5467648164  MEMB      142             0.0000000000
     17055       142  POPC      O13            37.3623139468       54.9218072044       16.4420680120  MEMB      142             0.0000000000
     17056       142  POPC      O14            38.0921097670       54.0887419841       18.7576853020  MEMB      142             0.0000000000
     17057       142  POPC      O12            38.2951853908       56.5173028703       18.1786015663  MEMB      142             0.0000000000
     17058       142  POPC      O11            39.7900233831       54.8774832279       16.8469335418  MEMB      142             0.0000000000
     17059       142  POPC      C1             40.6898896854       55.9741644889       16.6298932481  MEMB      142             0.0000000000
     17060       142  POPC      HA             41.6901546402       55.5182896268       16.7910425103  MEMB      142             0.0000000000
     17061       142  POPC      HB             40.5986661886       56.7853027028       17.3835867771  MEMB      142             0.0000000000
     17062       142  POPC      C2             40.6524893153       56.4775659033       15.1536529401  MEMB      142             0.0000000000
     17063       142  POPC      HS             41.4441931377       57.2519333921       15.0648775415  MEMB      142             0.0000000000
     17064       142  POPC      O21            39.4122093628       57.1849629886       14.9977034239  MEMB      142             0.0000000000
     17065       142  POPC      C21            39.1366119460       57.8414855955       13.9393644376  MEMB      142             0.0000000000
     17066       142  POPC      O22            39.9190419722       58.1697008625       13.0388093183  MEMB      142             0.0000000000
     17067       142  POPC      C22            37.5824983780       58.1346967705       13.8960326887  MEMB      142             0.0000000000
     17068       142  POPC      H2R            37.5004800165       59.1857477529       14.2465834918  MEMB      142             0.0000000000
     17069       142  POPC      H2S            37.0802757874       57.5147987446       14.6692211717  MEMB      142             0.0000000000
     17070       142  POPC      C3             40.8187582598       55.3680979049       14.0439911596  MEMB      142             0.0000000000
     17071       142  POPC      HX             41.8201805920       54.8982736389       14.1476218478  MEMB      142             0.0000000000
     17072       142  POPC      HY             40.7891343919       55.8977375936       13.0678124658  MEMB      142             0.0000000000
     17073       142  POPC      O31            39.7633498317       54.3896109012       14.0918046857  MEMB      142             0.0000000000
     17074       142  POPC      C31            40.0284739897       53.2288265246       13.3793822186  MEMB      142             0.0000000000
     17075       142  POPC      O32            41.1040375437       52.8417780223       13.0948299989  MEMB      142             0.0000000000
     17076       142  POPC      C32            38.6748958692       52.5310465603       13.1355886075  MEMB      142             0.0000000000
     17077       142  POPC      H2X            38.0244015942       52.2974081998       14.0054115317  MEMB      142             0.0000000000
     17078       142  POPC      H2Y            38.9466874693       51.5398747847       12.7136541561  MEMB      142             0.0000000000
     17079       142  POPC      C23            36.8594451005       57.9807701532       12.5418727127  MEMB      142             0.0000000000
     17080       142  POPC      H3R            35.7840202360       57.8502420382       12.7883371679  MEMB      142             0.0000000000
     17081       142  POPC      H3S            37.2465353768       57.1278893995       11.9443141518  MEMB      142             0.0000000000
     17082       142  POPC      C24            37.0095652322       59.2513898704       11.6239682749  MEMB      142             0.0000000000
     17083       142  POPC      H4R            38.0807494884       59.5460423952       11.6320487604  MEMB      142             0.0000000000
     17084       142  POPC      H4S            36.4209628482       60.0272835899       12.1586245782  MEMB      142             0.0000000000
     17085       142  POPC      C25            36.5596039895       58.9737651675       10.1665599831  MEMB      142             0.0000000000
     17086       142  POPC      H5R            35.9675338251       59.8540254208        9.8365367898  MEMB      142             0.0000000000
     17087       142  POPC      H5S            35.8682050030       58.1048837717       10.1300418431  MEMB      142             0.0000000000
     17088       142  POPC      C26            37.6491901204       58.8999709958        9.1129350212  MEMB      142             0.0000000000
     17089       142  POPC      H6R            38.1718356534       59.8573834507        8.9019278637  MEMB      142             0.0000000000
     17090       142  POPC      H6S            37.1371212618       58.6364490018        8.1628496713  MEMB      142             0.0000000000
     17091       142  POPC      C27            38.6980454435       57.9252217044        9.4608743832  MEMB      142             0.0000000000
     17092       142  POPC      H7R            38.3223916943       56.8804616881        9.4198639351  MEMB      142             0.0000000000
     17093       142  POPC      H7S            39.0565619723       57.9603374271       10.5118513618  MEMB      142             0.0000000000
     17094       142  POPC      C28            40.0358974386       57.9353458659        8.6912998861  MEMB      142             0.0000000000
     17095       142  POPC      H8R            40.5274421114       58.9009759267        8.9367862345  MEMB      142             0.0000000000
     17096       142  POPC      H8S            39.9124604324       57.9820506174        7.5881670308  MEMB      142             0.0000000000
     17097       142  POPC      C29            40.9826282655       56.7400501982        9.0609190526  MEMB      142             0.0000000000
     17098       142  POPC      H91            41.3546635511       56.6541758924       10.0925275588  MEMB      142             0.0000000000
     17099       142  POPC      C210           41.5204392642       55.9342991047        8.1872936946  MEMB      142             0.0000000000
     17100       142  POPC      H101           42.2179492262       55.1869809820        8.5934900896  MEMB      142             0.0000000000
     17101       142  POPC      C211           41.2931966452       55.9933003513        6.7020931013  MEMB      142             0.0000000000
     17102       142  POPC      H11R           40.2353937175       56.2973668097        6.5507078685  MEMB      142             0.0000000000
     17103       142  POPC      H11S           41.4103182944       54.9992878486        6.2198665534  MEMB      142             0.0000000000
     17104       142  POPC      C212           42.2446602476       56.8738761074        5.8008677909  MEMB      142             0.0000000000
     17105       142  POPC      H12R           43.2650178316       56.5072604992        6.0433218428  MEMB      142             0.0000000000
     17106       142  POPC      H12S           42.2587308294       57.9540009721        6.0605852746  MEMB      142             0.0000000000
     17107       142  POPC      C213           41.9550666172       56.7087430576        4.3354862648  MEMB      142             0.0000000000
     17108       142  POPC      H13R           41.6966868244       55.6770987153        4.0141293143  MEMB      142             0.0000000000
     17109       142  POPC      H13S           42.8680188546       57.0284022722        3.7889911225  MEMB      142             0.0000000000
     17110       142  POPC      C214           40.7892570550       57.5322340575        3.7658536050  MEMB      142             0.0000000000
     17111       142  POPC      H14R           39.9566566221       57.4945853598        4.5004829470  MEMB      142             0.0000000000
     17112       142  POPC      H14S           40.3064711504       57.0948679737        2.8658824596  MEMB      142             0.0000000000
     17113       142  POPC      C215           41.1357141111       58.9938054003        3.4847270430  MEMB      142             0.0000000000
     17114       142  POPC      H15R           41.6108493942       59.1370832656        2.4907257826  MEMB      142             0.0000000000
     17115       142  POPC      H15S           41.6972576172       59.4648110120        4.3196783837  MEMB      142             0.0000000000
     17116       142  POPC      C216           39.9668935265       60.0176938729        3.4990972423  MEMB      142             0.0000000000
     17117       142  POPC      H16R           40.3447023747       61.0619978886        3.4673180305  MEMB      142             0.0000000000
     17118       142  POPC      H16S           39.4058829597       59.9800712087        4.4573103912  MEMB      142             0.0000000000
     17119       142  POPC      C217           39.0263453283       59.8705135055        2.2575587829  MEMB      142             0.0000000000
     17120       142  POPC      H17R           38.7039614308       58.8180533286        2.1068389627  MEMB      142             0.0000000000
     17121       142  POPC      H17S           39.6089605368       60.1078593293        1.3418376763  MEMB      142             0.0000000000
     17122       142  POPC      C218           37.6608232972       60.6660312029        2.3321124590  MEMB      142             0.0000000000
     17123       142  POPC      H18R           37.8340011585       61.7500712829        2.1612709194  MEMB      142             0.0000000000
     17124       142  POPC      H18S           37.2375047672       60.3650370173        3.3142143049  MEMB      142             0.0000000000
     17125       142  POPC      H18T           37.0314472823       60.3286008851        1.4810260359  MEMB      142             0.0000000000
     17126       142  POPC      C33            37.9407434542       53.4199144157       12.1233394673  MEMB      142             0.0000000000
     17127       142  POPC      H3X            38.4203019483       53.2402181626       11.1374117061  MEMB      142             0.0000000000
     17128       142  POPC      H3Y            37.9385547740       54.5230544047       12.2552436984  MEMB      142             0.0000000000
     17129       142  POPC      C34            36.4952673080       53.0189242616       11.9842047943  MEMB      142             0.0000000000
     17130       142  POPC      H4X            35.9041966247       53.5204896671       12.7800617036  MEMB      142             0.0000000000
     17131       142  POPC      H4Y            36.4716220690       51.9108253192       12.0608759592  MEMB      142             0.0000000000
     17132       142  POPC      C35            35.9025625280       53.3750913823       10.6225658574  MEMB      142             0.0000000000
     17133       142  POPC      H5X            34.9355061156       52.9138645199       10.3286395787  MEMB      142             0.0000000000
     17134       142  POPC      H5Y            36.5478333828       52.9000017603        9.8529967644  MEMB      142             0.0000000000
     17135       142  POPC      C36            35.8306727911       54.8402779294       10.3709887926  MEMB      142             0.0000000000
     17136       142  POPC      H6X            36.8230449557       55.3389807461       10.3995200899  MEMB      142             0.0000000000
     17137       142  POPC      H6Y            35.1407818128       55.2886324659       11.1175466607  MEMB      142             0.0000000000
     17138       142  POPC      C37            35.3197619178       55.3344200838        8.9926485153  MEMB      142             0.0000000000
     17139       142  POPC      H7X            35.2859277319       56.4395159492        8.8833806730  MEMB      142             0.0000000000
     17140       142  POPC      H7Y            34.2919865247       54.9247280036        8.8918967318  MEMB      142             0.0000000000
     17141       142  POPC      C38            36.2318817731       54.9424511026        7.8488160440  MEMB      142             0.0000000000
     17142       142  POPC      H8X            36.4743587240       53.8597723969        7.7910862826  MEMB      142             0.0000000000
     17143       142  POPC      H8Y            37.2760484485       55.2726347932        8.0359410505  MEMB      142             0.0000000000
     17144       142  POPC      C39            35.8007121322       55.4429606384        6.4330397191  MEMB      142             0.0000000000
     17145       142  POPC      H9X            35.3929956284       56.4397237804        6.7060811728  MEMB      142             0.0000000000
     17146       142  POPC      H9Y            34.9254519396       54.8218279380        6.1459255497  MEMB      142             0.0000000000
     17147       142  POPC      C310           37.0163565194       55.4147217434        5.4885568814  MEMB      142             0.0000000000
     17148       142  POPC      H10X           37.7870614868       55.9107163619        6.1165085279  MEMB      142             0.0000000000
     17149       142  POPC      H10Y           36.7318565304       56.0454891093        4.6193540484  MEMB      142             0.0000000000
     17150       142  POPC      C311           37.5698674375       54.0145726446        5.0335946969  MEMB      142             0.0000000000
     17151       142  POPC      H11X           36.6744115460       53.4517842770        4.6933754881  MEMB      142             0.0000000000
     17152       142  POPC      H11Y           37.8626790217       53.4963257413        5.9716783755  MEMB      142             0.0000000000
     17153       142  POPC      C312           38.5502037387       54.1986741325        3.9408427781  MEMB      142             0.0000000000
     17154       142  POPC      H12X           39.1727315269       53.2818378996        3.8621549818  MEMB      142             0.0000000000
     17155       142  POPC      H12Y           39.2982688483       54.9852756728        4.1774392378  MEMB      142             0.0000000000
     17156       142  POPC      C313           38.0040184833       54.5107641473        2.6049286587  MEMB      142             0.0000000000
     17157       142  POPC      H13X           37.7017724077       55.5781389448        2.5442710782  MEMB      142             0.0000000000
     17158       142  POPC      H13Y           37.0459171713       53.9502781968        2.5578329083  MEMB      142             0.0000000000
     17159       142  POPC      C314           39.1028754465       54.1686873247        1.5867254960  MEMB      142             0.0000000000
     17160       142  POPC      H14X           39.4603103040       53.1167789540        1.5937895063  MEMB      142             0.0000000000
     17161       142  POPC      H14Y           39.9800603007       54.7999195016        1.8444336404  MEMB      142             0.0000000000
     17162       142  POPC      C315           38.6337983238       54.3966702861        0.1429646888  MEMB      142             0.0000000000
     17163       142  POPC      H15X           37.8840736689       55.2143255891        0.2035755412  MEMB      142             0.0000000000
     17164       142  POPC      H15Y           38.1025114313       53.4958094112       -0.2318745459  MEMB      142             0.0000000000
     17165       142  POPC      C316           39.7363437736       54.7523022329       -0.9515579528  MEMB      142             0.0000000000
     17166       142  POPC      H16X           40.3371990331       53.8431264838       -1.1676447808  MEMB      142             0.0000000000
     17167       142  POPC      H16Y           40.4414276559       55.4693595888       -0.4793216710  MEMB      142             0.0000000000
     17168       142  POPC      H16Z           39.1780958947       55.1469740317       -1.8272941761  MEMB      142             0.0000000000
     17169       143  POPC      N              54.2759996798      -40.1508904916       19.5404199377  MEMB      143             0.0000000000
     17170       143  POPC      C12            53.7929877122      -41.2408774657       20.4835404242  MEMB      143             0.0000000000
     17171       143  POPC      H12A           52.7682408136      -40.9715619073       20.6927361650  MEMB      143             0.0000000000
     17172       143  POPC      H12B           54.2849268958      -40.9902431143       21.4117528596  MEMB      143             0.0000000000
     17173       143  POPC      C13            53.4480296569      -40.1418481012       18.3164298681  MEMB      143             0.0000000000
     17174       143  POPC      H13A           53.8325639507      -39.6505058853       17.4348878332  MEMB      143             0.0000000000
     17175       143  POPC      H13B           53.2293942121      -41.1421511773       17.9729301878  MEMB      143             0.0000000000
     17176       143  POPC      H13C           52.4927750624      -39.6768535352       18.5105148365  MEMB      143             0.0000000000
     17177       143  POPC      C14            54.1095460585      -38.7720728988       20.2379939316  MEMB      143             0.0000000000
     17178       143  POPC      H14A           54.7744644397      -38.8325563864       21.0868906000  MEMB      143             0.0000000000
     17179       143  POPC      H14B           54.5490541408      -37.9520186069       19.6895930442  MEMB      143             0.0000000000
     17180       143  POPC      H14C           53.0703691640      -38.7138899615       20.5263098698  MEMB      143             0.0000000000
     17181       143  POPC      C15            55.6630137508      -40.4113313626       19.0765509228  MEMB      143             0.0000000000
     17182       143  POPC      H15A           56.3191494398      -40.2070696014       19.9097154609  MEMB      143             0.0000000000
     17183       143  POPC      H15B           55.8928272892      -39.8290871759       18.1964500299  MEMB      143             0.0000000000
     17184       143  POPC      H15C           55.7863543000      -41.4242245164       18.7226660349  MEMB      143             0.0000000000
     17185       143  POPC      C11            54.0680707991      -42.7300014791       20.2633557482  MEMB      143             0.0000000000
     17186       143  POPC      H11A           53.3247521786      -43.1973205401       20.9440989701  MEMB      143             0.0000000000
     17187       143  POPC      H11B           55.0846301887      -42.9459954207       20.6561337945  MEMB      143             0.0000000000
     17188       143  POPC      P              54.8285070736      -44.2193991004       18.2334756835  MEMB      143             0.0000000000
     17189       143  POPC      O13            54.4615700995      -45.5984268292       18.7327921077  MEMB      143             0.0000000000
     17190       143  POPC      O14            56.2436289512      -43.7506319302       18.4217217050  MEMB      143             0.0000000000
     17191       143  POPC      O12            53.8684982306      -43.1810827752       18.9519506530  MEMB      143             0.0000000000
     17192       143  POPC      O11            54.3320556872      -44.0462825684       16.7417690205  MEMB      143             0.0000000000
     17193       143  POPC      C1             53.1750144149      -44.7625487434       16.3636243061  MEMB      143             0.0000000000
     17194       143  POPC      HA             52.4457504953      -44.6110665777       17.1879714498  MEMB      143             0.0000000000
     17195       143  POPC      HB             53.3964550915      -45.8334619204       16.1675888015  MEMB      143             0.0000000000
     17196       143  POPC      C2             52.5934970872      -44.1717072859       14.9939405258  MEMB      143             0.0000000000
     17197       143  POPC      HS             51.6620103615      -44.7243116655       14.7463885646  MEMB      143             0.0000000000
     17198       143  POPC      O21            53.5921230946      -44.3456810768       13.9281589656  MEMB      143             0.0000000000
     17199       143  POPC      C21            53.0523293211      -44.3797803679       12.6710106182  MEMB      143             0.0000000000
     17200       143  POPC      O22            51.8285465613      -44.5201736449       12.4164178510  MEMB      143             0.0000000000
     17201       143  POPC      C22            54.1135552039      -44.1938647162       11.4742913437  MEMB      143             0.0000000000
     17202       143  POPC      H2R            54.0382150589      -43.1632759759       11.0662083562  MEMB      143             0.0000000000
     17203       143  POPC      H2S            53.7172726220      -44.9229671858       10.7355827714  MEMB      143             0.0000000000
     17204       143  POPC      C3             52.2193191172      -42.6474745789       15.1398289828  MEMB      143             0.0000000000
     17205       143  POPC      HX             51.6530171747      -42.6490218817       16.0956639688  MEMB      143             0.0000000000
     17206       143  POPC      HY             51.5366952570      -42.2321294724       14.3679261185  MEMB      143             0.0000000000
     17207       143  POPC      O31            53.3581241541      -41.9304817009       15.2739225165  MEMB      143             0.0000000000
     17208       143  POPC      C31            53.8228302936      -41.0717175494       14.3624188784  MEMB      143             0.0000000000
     17209       143  POPC      O32            53.3114036725      -40.7637451242       13.3138112423  MEMB      143             0.0000000000
     17210       143  POPC      C32            55.2452613221      -40.6413811163       14.7403299496  MEMB      143             0.0000000000
     17211       143  POPC      H2X            55.5815627313      -41.2972149849       15.5716566991  MEMB      143             0.0000000000
     17212       143  POPC      H2Y            55.2491048454      -39.5688631309       15.0301770836  MEMB      143             0.0000000000
     17213       143  POPC      C23            55.5060940202      -44.6422365000       11.8062864027  MEMB      143             0.0000000000
     17214       143  POPC      H3R            55.3863250396      -45.6032049413       12.3508192640  MEMB      143             0.0000000000
     17215       143  POPC      H3S            55.9553486526      -43.9043741078       12.5048922486  MEMB      143             0.0000000000
     17216       143  POPC      C24            56.4823250370      -44.8382607062       10.6432688558  MEMB      143             0.0000000000
     17217       143  POPC      H4R            56.7534161437      -43.8704969240       10.1697042332  MEMB      143             0.0000000000
     17218       143  POPC      H4S            55.9704368283      -45.4335527210        9.8571914032  MEMB      143             0.0000000000
     17219       143  POPC      C25            57.7594917607      -45.6754941162       11.0074201549  MEMB      143             0.0000000000
     17220       143  POPC      H5R            57.5557239313      -46.7379183631       11.2605100335  MEMB      143             0.0000000000
     17221       143  POPC      H5S            58.1022540606      -45.1714342012       11.9362687219  MEMB      143             0.0000000000
     17222       143  POPC      C26            58.9351503864      -45.5343491386       10.0483860620  MEMB      143             0.0000000000
     17223       143  POPC      H6R            59.6838989090      -45.8013679820       10.8245285832  MEMB      143             0.0000000000
     17224       143  POPC      H6S            59.0952077608      -44.4912121847        9.7011567321  MEMB      143             0.0000000000
     17225       143  POPC      C27            58.7564771583      -46.6173044245        8.9886667347  MEMB      143             0.0000000000
     17226       143  POPC      H7R            58.2620464790      -47.5244553713        9.3972454093  MEMB      143             0.0000000000
     17227       143  POPC      H7S            59.7649279407      -47.0425703889        8.7976245994  MEMB      143             0.0000000000
     17228       143  POPC      C28            58.2337108743      -46.0474501248        7.6395088201  MEMB      143             0.0000000000
     17229       143  POPC      H8R            58.8072763088      -45.0996318267        7.5559379363  MEMB      143             0.0000000000
     17230       143  POPC      H8S            57.1643821080      -45.7484206612        7.6774343674  MEMB      143             0.0000000000
     17231       143  POPC      C29            58.6162645445      -46.9820324778        6.5277215502  MEMB      143             0.0000000000
     17232       143  POPC      H91            59.6906230102      -47.1027395274        6.3247843179  MEMB      143             0.0000000000
     17233       143  POPC      C210           57.7580086044      -47.6614084648        5.7374165625  MEMB      143             0.0000000000
     17234       143  POPC      H101           58.1846493320      -48.2812362061        4.9350512757  MEMB      143             0.0000000000
     17235       143  POPC      C211           56.2666582468      -47.6488217405        5.8509273784  MEMB      143             0.0000000000
     17236       143  POPC      H11R           55.9345025135      -47.4818198673        6.8978768734  MEMB      143             0.0000000000
     17237       143  POPC      H11S           55.7188690815      -48.5639016400        5.5396764337  MEMB      143             0.0000000000
     17238       143  POPC      C212           55.7546424648      -46.5417295373        4.9403250030  MEMB      143             0.0000000000
     17239       143  POPC      H12R           56.3120672226      -45.6102243396        5.1767495058  MEMB      143             0.0000000000
     17240       143  POPC      H12S           54.7186336719      -46.3022326044        5.2622697568  MEMB      143             0.0000000000
     17241       143  POPC      C213           55.5666540878      -46.8854888951        3.4728327322  MEMB      143             0.0000000000
     17242       143  POPC      H13R           54.9362112619      -47.7612730175        3.2085125000  MEMB      143             0.0000000000
     17243       143  POPC      H13S           56.4759187941      -47.2410554341        2.9426146405  MEMB      143             0.0000000000
     17244       143  POPC      C214           54.7922189022      -45.7979513185        2.6725170400  MEMB      143             0.0000000000
     17245       143  POPC      H14R           53.8087165037      -45.7610180805        3.1879585987  MEMB      143             0.0000000000
     17246       143  POPC      H14S           54.6358279864      -46.1330363444        1.6248622074  MEMB      143             0.0000000000
     17247       143  POPC      C215           55.4659606325      -44.3989270171        2.6488397095  MEMB      143             0.0000000000
     17248       143  POPC      H15R           56.3566837794      -44.4664194191        1.9882497781  MEMB      143             0.0000000000
     17249       143  POPC      H15S           55.8554016112      -44.1311636066        3.6543036303  MEMB      143             0.0000000000
     17250       143  POPC      C216           54.5621108719      -43.2423165274        1.9882233623  MEMB      143             0.0000000000
     17251       143  POPC      H16R           55.2951931186      -42.4091493163        2.0406063256  MEMB      143             0.0000000000
     17252       143  POPC      H16S           53.7464382307      -43.0070160530        2.7049051663  MEMB      143             0.0000000000
     17253       143  POPC      C217           54.0274161732      -43.6109384414        0.5628618655  MEMB      143             0.0000000000
     17254       143  POPC      H17R           53.4285371142      -42.7389324138        0.2233469039  MEMB      143             0.0000000000
     17255       143  POPC      H17S           53.4849962414      -44.5805145711        0.5677567515  MEMB      143             0.0000000000
     17256       143  POPC      C218           55.0476596526      -43.9225666611       -0.5839376561  MEMB      143             0.0000000000
     17257       143  POPC      H18R           55.9834417042      -44.3640182610       -0.1792726509  MEMB      143             0.0000000000
     17258       143  POPC      H18S           55.2705639175      -42.9804380066       -1.1289405437  MEMB      143             0.0000000000
     17259       143  POPC      H18T           54.4971718692      -44.6261526171       -1.2444318593  MEMB      143             0.0000000000
     17260       143  POPC      C33            56.2549153408      -40.8208378466       13.5830675107  MEMB      143             0.0000000000
     17261       143  POPC      H3X            56.1606123128      -41.8473349820       13.1686623859  MEMB      143             0.0000000000
     17262       143  POPC      H3Y            57.2688239570      -40.7725984496       14.0347128363  MEMB      143             0.0000000000
     17263       143  POPC      C34            56.2091958670      -39.6780825685       12.4780110135  MEMB      143             0.0000000000
     17264       143  POPC      H4X            56.1728028386      -38.7117020166       13.0249162714  MEMB      143             0.0000000000
     17265       143  POPC      H4Y            55.2410089595      -39.8294840046       11.9545484969  MEMB      143             0.0000000000
     17266       143  POPC      C35            57.4188160541      -39.5272690734       11.5635416845  MEMB      143             0.0000000000
     17267       143  POPC      H5X            58.3193594103      -39.2435147341       12.1490557606  MEMB      143             0.0000000000
     17268       143  POPC      H5Y            57.2178970093      -38.6599105084       10.8989804159  MEMB      143             0.0000000000
     17269       143  POPC      C36            57.6301233488      -40.7804502246       10.7422410914  MEMB      143             0.0000000000
     17270       143  POPC      H6X            57.3035149976      -41.5559332754       11.4676888237  MEMB      143             0.0000000000
     17271       143  POPC      H6Y            58.6913687541      -40.7917918943       10.4136838561  MEMB      143             0.0000000000
     17272       143  POPC      C37            56.7985087121      -40.9269152369        9.3876583936  MEMB      143             0.0000000000
     17273       143  POPC      H7X            57.0334079630      -41.9366744206        8.9882462642  MEMB      143             0.0000000000
     17274       143  POPC      H7Y            57.2368283700      -40.1098839905        8.7755659490  MEMB      143             0.0000000000
     17275       143  POPC      C38            55.3556655868      -40.7835193258        9.5143113066  MEMB      143             0.0000000000
     17276       143  POPC      H8X            55.0475656692      -39.7568908876        9.8065939276  MEMB      143             0.0000000000
     17277       143  POPC      H8Y            55.0580000913      -41.3594404055       10.4165475130  MEMB      143             0.0000000000
     17278       143  POPC      C39            54.5338534350      -41.4305977882        8.3914783445  MEMB      143             0.0000000000
     17279       143  POPC      H9X            53.4460697078      -41.2298153417        8.4950831003  MEMB      143             0.0000000000
     17280       143  POPC      H9Y            54.5939434216      -42.5148383726        8.6262814645  MEMB      143             0.0000000000
     17281       143  POPC      C310           55.0173035585      -41.2844621969        6.9507883014  MEMB      143             0.0000000000
     17282       143  POPC      H10X           55.9992214603      -41.8038445420        6.9707972646  MEMB      143             0.0000000000
     17283       143  POPC      H10Y           55.2178090756      -40.2062771903        6.7729245750  MEMB      143             0.0000000000
     17284       143  POPC      C311           54.0461815361      -41.8712105312        5.8852902093  MEMB      143             0.0000000000
     17285       143  POPC      H11X           54.0113858103      -42.9789088740        5.9634843516  MEMB      143             0.0000000000
     17286       143  POPC      H11Y           54.5722642598      -41.6838191436        4.9248523855  MEMB      143             0.0000000000
     17287       143  POPC      C312           52.6379915085      -41.3307530152        5.9463189717  MEMB      143             0.0000000000
     17288       143  POPC      H12X           52.7108919461      -40.2394416047        5.7512651078  MEMB      143             0.0000000000
     17289       143  POPC      H12Y           52.2107506381      -41.5155823241        6.9550918864  MEMB      143             0.0000000000
     17290       143  POPC      C313           51.6851012630      -41.8583680932        4.8770521462  MEMB      143             0.0000000000
     17291       143  POPC      H13X           52.0277366971      -41.4808679000        3.8899266057  MEMB      143             0.0000000000
     17292       143  POPC      H13Y           50.6697024046      -41.4810685783        5.1238939619  MEMB      143             0.0000000000
     17293       143  POPC      C314           51.6502845651      -43.3941114221        4.7374712401  MEMB      143             0.0000000000
     17294       143  POPC      H14X           51.4645301682      -43.7847406271        5.7608113453  MEMB      143             0.0000000000
     17295       143  POPC      H14Y           52.6682012951      -43.6316189372        4.3609659646  MEMB      143             0.0000000000
     17296       143  POPC      C315           50.5933226217      -43.9385823462        3.6824823686  MEMB      143             0.0000000000
     17297       143  POPC      H15X           49.6043882798      -43.6730142217        4.1135305661  MEMB      143             0.0000000000
     17298       143  POPC      H15Y           50.6161966085      -45.0474037960        3.7481544418  MEMB      143             0.0000000000
     17299       143  POPC      C316           50.7863305640      -43.4679860076        2.2362554958  MEMB      143             0.0000000000
     17300       143  POPC      H16X           49.8314048693      -43.7204253415        1.7276176652  MEMB      143             0.0000000000
     17301       143  POPC      H16Y           51.6916850636      -43.8287326993        1.7028537925  MEMB      143             0.0000000000
     17302       143  POPC      H16Z           50.8547059069      -42.3640814262        2.1311823578  MEMB      143             0.0000000000
     17303       144  POPC      N             -42.1296124732       54.9695077215       18.7500382067  MEMB      144             0.0000000000
     17304       144  POPC      C12           -40.6262358608       55.1899312656       19.1249234663  MEMB      144             0.0000000000
     17305       144  POPC      H12A          -40.6051732676       56.0421996982       19.7879428176  MEMB      144             0.0000000000
     17306       144  POPC      H12B          -40.1062656069       55.5295676742       18.2413635643  MEMB      144             0.0000000000
     17307       144  POPC      C13           -42.2290997718       54.0060204957       17.6283373852  MEMB      144             0.0000000000
     17308       144  POPC      H13A          -42.8299453082       53.2091264274       18.0410655268  MEMB      144             0.0000000000
     17309       144  POPC      H13B          -42.8783746067       54.4368048532       16.8804958911  MEMB      144             0.0000000000
     17310       144  POPC      H13C          -41.2025186569       53.7668302317       17.3931367293  MEMB      144             0.0000000000
     17311       144  POPC      C14           -42.8843900095       54.5153078118       19.9095663551  MEMB      144             0.0000000000
     17312       144  POPC      H14A          -42.9390043370       55.2840619145       20.6661601886  MEMB      144             0.0000000000
     17313       144  POPC      H14B          -43.9102359605       54.3394247722       19.6212866684  MEMB      144             0.0000000000
     17314       144  POPC      H14C          -42.5326888211       53.5587841384       20.2670138234  MEMB      144             0.0000000000
     17315       144  POPC      C15           -42.8017671681       56.2287373477       18.3837415567  MEMB      144             0.0000000000
     17316       144  POPC      H15A          -42.4139656515       57.0959407391       18.8975201883  MEMB      144             0.0000000000
     17317       144  POPC      H15B          -43.8433671863       56.2064756684       18.6683003708  MEMB      144             0.0000000000
     17318       144  POPC      H15C          -42.8207340443       56.5103213470       17.3412681371  MEMB      144             0.0000000000
     17319       144  POPC      C11           -39.8190804530       53.9354162332       19.6671368407  MEMB      144             0.0000000000
     17320       144  POPC      H11A          -40.4048011285       53.7541806374       20.5936388151  MEMB      144             0.0000000000
     17321       144  POPC      H11B          -38.7798423280       54.1322636808       20.0070725424  MEMB      144             0.0000000000
     17322       144  POPC      P             -39.9449882564       51.3591453880       19.1817635308  MEMB      144             0.0000000000
     17323       144  POPC      O13           -40.7193972323       51.2565553362       20.4454276475  MEMB      144             0.0000000000
     17324       144  POPC      O14           -38.5761294222       50.8878907796       19.2337492938  MEMB      144             0.0000000000
     17325       144  POPC      O12           -39.8659819863       52.9095716521       18.7148635846  MEMB      144             0.0000000000
     17326       144  POPC      O11           -40.6470475530       50.6862925738       17.9604521338  MEMB      144             0.0000000000
     17327       144  POPC      C1            -42.0127107081       50.4398728244       17.8086321653  MEMB      144             0.0000000000
     17328       144  POPC      HA            -42.5906410219       51.3483746217       18.0823875117  MEMB      144             0.0000000000
     17329       144  POPC      HB            -42.3469634190       49.7624412663       18.6232993465  MEMB      144             0.0000000000
     17330       144  POPC      C2            -42.4430151574       49.8591497507       16.3988822643  MEMB      144             0.0000000000
     17331       144  POPC      HS            -43.3175709056       49.2140077720       16.6296741346  MEMB      144             0.0000000000
     17332       144  POPC      O21           -41.3681328457       49.1771193984       15.8384693818  MEMB      144             0.0000000000
     17333       144  POPC      C21           -41.6579062890       48.5951854674       14.7263210186  MEMB      144             0.0000000000
     17334       144  POPC      O22           -42.7943608581       48.3330304906       14.3507038904  MEMB      144             0.0000000000
     17335       144  POPC      C22           -40.4350407608       48.4326232842       13.9628089053  MEMB      144             0.0000000000
     17336       144  POPC      H2R           -40.6313004143       47.5229268438       13.3559684074  MEMB      144             0.0000000000
     17337       144  POPC      H2S           -39.6014886162       48.0867132481       14.6107733782  MEMB      144             0.0000000000
     17338       144  POPC      C3            -42.9367829259       51.1006844239       15.5392419688  MEMB      144             0.0000000000
     17339       144  POPC      HX            -43.7542679121       51.5797277400       16.1193772352  MEMB      144             0.0000000000
     17340       144  POPC      HY            -43.3920468707       50.7263450604       14.5974742364  MEMB      144             0.0000000000
     17341       144  POPC      O31           -41.8739137589       52.0434230996       15.1918961362  MEMB      144             0.0000000000
     17342       144  POPC      C31           -42.2184253875       52.8374074347       14.2076999169  MEMB      144             0.0000000000
     17343       144  POPC      O32           -43.2983229267       52.8903464218       13.6471495249  MEMB      144             0.0000000000
     17344       144  POPC      C32           -41.1954566572       53.9338538086       13.9061653596  MEMB      144             0.0000000000
     17345       144  POPC      H2X           -40.2516330687       53.3517918252       13.8374492993  MEMB      144             0.0000000000
     17346       144  POPC      H2Y           -40.9968533139       54.6021906347       14.7711527229  MEMB      144             0.0000000000
     17347       144  POPC      C23           -40.1409993439       49.6046589623       13.1319906488  MEMB      144             0.0000000000
     17348       144  POPC      H3R           -39.0326260142       49.6669613584       13.0878532028  MEMB      144             0.0000000000
     17349       144  POPC      H3S           -40.4960110130       50.5586125239       13.5772547085  MEMB      144             0.0000000000
     17350       144  POPC      C24           -40.7466675498       49.4666813572       11.6617456217  MEMB      144             0.0000000000
     17351       144  POPC      H4R           -41.8367047634       49.2519731343       11.6681050227  MEMB      144             0.0000000000
     17352       144  POPC      H4S           -40.2274680279       48.6059136596       11.1886368282  MEMB      144             0.0000000000
     17353       144  POPC      C25           -40.4940019633       50.7977260545       10.9271271470  MEMB      144             0.0000000000
     17354       144  POPC      H5R           -39.4674581192       51.1772152317       11.1182201057  MEMB      144             0.0000000000
     17355       144  POPC      H5S           -40.9934570676       51.6172006803       11.4868830435  MEMB      144             0.0000000000
     17356       144  POPC      C26           -40.8723577242       50.8814462575        9.4765962765  MEMB      144             0.0000000000
     17357       144  POPC      H6R           -40.1746104444       50.2667779749        8.8686057565  MEMB      144             0.0000000000
     17358       144  POPC      H6S           -40.7693802119       51.9011091455        9.0476398418  MEMB      144             0.0000000000
     17359       144  POPC      C27           -42.3039488910       50.3097984339        9.2176778889  MEMB      144             0.0000000000
     17360       144  POPC      H7R           -42.3286315666       49.2224390297        9.4443075017  MEMB      144             0.0000000000
     17361       144  POPC      H7S           -42.3713046515       50.3132256535        8.1087270179  MEMB      144             0.0000000000
     17362       144  POPC      C28           -43.4561009505       51.2223420694        9.7441057597  MEMB      144             0.0000000000
     17363       144  POPC      H8R           -43.0673156468       51.6311459644       10.7012088934  MEMB      144             0.0000000000
     17364       144  POPC      H8S           -44.3160965074       50.6235098800       10.1130614368  MEMB      144             0.0000000000
     17365       144  POPC      C29           -43.8898714793       52.3949279607        8.8311304673  MEMB      144             0.0000000000
     17366       144  POPC      H91           -43.3727195117       53.3455541863        9.0282686519  MEMB      144             0.0000000000
     17367       144  POPC      C210          -44.8179911745       52.3815665995        7.8192829770  MEMB      144             0.0000000000
     17368       144  POPC      H101          -45.0282088964       53.3428241849        7.3275586938  MEMB      144             0.0000000000
     17369       144  POPC      C211          -45.5175981591       51.0788616963        7.3414574571  MEMB      144             0.0000000000
     17370       144  POPC      H11R          -46.4814202971       50.8166121435        7.8278651979  MEMB      144             0.0000000000
     17371       144  POPC      H11S          -44.9807803396       50.1359392591        7.5802981578  MEMB      144             0.0000000000
     17372       144  POPC      C212          -45.5626281748       51.0375272758        5.8312068359  MEMB      144             0.0000000000
     17373       144  POPC      H12R          -44.5445956856       51.0243293795        5.3865086913  MEMB      144             0.0000000000
     17374       144  POPC      H12S          -46.1502169254       51.9022726757        5.4553399421  MEMB      144             0.0000000000
     17375       144  POPC      C213          -46.1744620197       49.7511433112        5.1379964667  MEMB      144             0.0000000000
     17376       144  POPC      H13R          -47.2347733399       49.9929748415        4.9108871227  MEMB      144             0.0000000000
     17377       144  POPC      H13S          -46.2749172361       48.9005122188        5.8455678115  MEMB      144             0.0000000000
     17378       144  POPC      C214          -45.2568396327       49.2933603380        4.0023698914  MEMB      144             0.0000000000
     17379       144  POPC      H14R          -45.5847259100       48.2931151612        3.6469542705  MEMB      144             0.0000000000
     17380       144  POPC      H14S          -44.2672227538       49.1321008091        4.4808827295  MEMB      144             0.0000000000
     17381       144  POPC      C215          -45.2460071550       50.2245584119        2.8104045444  MEMB      144             0.0000000000
     17382       144  POPC      H15R          -44.9331433333       51.2414596803        3.1303241390  MEMB      144             0.0000000000
     17383       144  POPC      H15S          -46.2985692979       50.2728053148        2.4581155206  MEMB      144             0.0000000000
     17384       144  POPC      C216          -44.1529326268       49.8657668915        1.7905621409  MEMB      144             0.0000000000
     17385       144  POPC      H16R          -44.6134003037       49.0136588109        1.2463170265  MEMB      144             0.0000000000
     17386       144  POPC      H16S          -43.3324858706       49.4493399920        2.4132798989  MEMB      144             0.0000000000
     17387       144  POPC      C217          -43.6655803035       51.0145207610        0.8677347796  MEMB      144             0.0000000000
     17388       144  POPC      H17R          -43.1911271719       51.7682894937        1.5318495055  MEMB      144             0.0000000000
     17389       144  POPC      H17S          -44.5477530006       51.4346841964        0.3390063249  MEMB      144             0.0000000000
     17390       144  POPC      C218          -42.6367884080       50.6109363782       -0.1325248514  MEMB      144             0.0000000000
     17391       144  POPC      H18R          -42.3112611032       51.5006955868       -0.7127673359  MEMB      144             0.0000000000
     17392       144  POPC      H18S          -43.0281087748       49.8408578192       -0.8312145834  MEMB      144             0.0000000000
     17393       144  POPC      H18T          -41.6743663144       50.2456046220        0.2853240959  MEMB      144             0.0000000000
     17394       144  POPC      C33           -41.4046208484       54.5430285123       12.5052722266  MEMB      144             0.0000000000
     17395       144  POPC      H3X           -42.4210823820       54.9883888634       12.4525333201  MEMB      144             0.0000000000
     17396       144  POPC      H3Y           -41.4572986133       53.6963959876       11.7878049583  MEMB      144             0.0000000000
     17397       144  POPC      C34           -40.3966481410       55.5667579872       12.1786945312  MEMB      144             0.0000000000
     17398       144  POPC      H4X           -39.4100846676       55.0566403597       12.1505250261  MEMB      144             0.0000000000
     17399       144  POPC      H4Y           -40.3962554298       56.4024334077       12.9107920839  MEMB      144             0.0000000000
     17400       144  POPC      C35           -40.6179953983       56.2472800329       10.8642536381  MEMB      144             0.0000000000
     17401       144  POPC      H5X           -39.8724341075       57.0709507066       10.8591607467  MEMB      144             0.0000000000
     17402       144  POPC      H5Y           -41.6604010093       56.6221145791       10.9491681879  MEMB      144             0.0000000000
     17403       144  POPC      C36           -40.5725374289       55.3412354682        9.6302948354  MEMB      144             0.0000000000
     17404       144  POPC      H6X           -41.4778195739       54.6972728961        9.6401554928  MEMB      144             0.0000000000
     17405       144  POPC      H6Y           -39.6293698288       54.7579697646        9.6977998197  MEMB      144             0.0000000000
     17406       144  POPC      C37           -40.5820608098       56.0787656776        8.3188418179  MEMB      144             0.0000000000
     17407       144  POPC      H7X           -39.5809739402       56.5486662745        8.2123562712  MEMB      144             0.0000000000
     17408       144  POPC      H7Y           -41.4109462415       56.8178243131        8.3514380905  MEMB      144             0.0000000000
     17409       144  POPC      C38           -41.1093100353       55.3141358599        7.0595534872  MEMB      144             0.0000000000
     17410       144  POPC      H8X           -41.2152682470       55.9931393464        6.1865997564  MEMB      144             0.0000000000
     17411       144  POPC      H8Y           -42.1841847925       55.0761076278        7.2089108503  MEMB      144             0.0000000000
     17412       144  POPC      C39           -40.3707378616       54.0217590670        6.6997172637  MEMB      144             0.0000000000
     17413       144  POPC      H9X           -40.1416000035       53.3681519580        7.5684024373  MEMB      144             0.0000000000
     17414       144  POPC      H9Y           -39.4670616661       54.4644530865        6.2288542384  MEMB      144             0.0000000000
     17415       144  POPC      C310          -41.0113019764       53.0071463501        5.6983231001  MEMB      144             0.0000000000
     17416       144  POPC      H10X          -41.9244722412       52.5292011446        6.1130634841  MEMB      144             0.0000000000
     17417       144  POPC      H10Y          -40.3304491983       52.1570265206        5.4791045427  MEMB      144             0.0000000000
     17418       144  POPC      C311          -41.3003521920       53.8060730990        4.3924874092  MEMB      144             0.0000000000
     17419       144  POPC      H11X          -40.6036309012       54.6531859610        4.2155689882  MEMB      144             0.0000000000
     17420       144  POPC      H11Y          -42.2922990268       54.3029766632        4.4512202026  MEMB      144             0.0000000000
     17421       144  POPC      C312          -41.4480636517       53.0202586312        3.0887700849  MEMB      144             0.0000000000
     17422       144  POPC      H12X          -41.9919734409       53.5603880219        2.2845653126  MEMB      144             0.0000000000
     17423       144  POPC      H12Y          -42.0416662092       52.1476417156        3.4358965144  MEMB      144             0.0000000000
     17424       144  POPC      C313          -40.2220184655       52.4088865373        2.4520424018  MEMB      144             0.0000000000
     17425       144  POPC      H13X          -40.4794785102       52.0283277451        1.4405039241  MEMB      144             0.0000000000
     17426       144  POPC      H13Y          -39.9723310439       51.5075829402        3.0517323749  MEMB      144             0.0000000000
     17427       144  POPC      C314          -39.0908469514       53.3384100634        2.4820328478  MEMB      144             0.0000000000
     17428       144  POPC      H14X          -38.2255588380       52.6798787075        2.2541424006  MEMB      144             0.0000000000
     17429       144  POPC      H14Y          -38.8474725076       53.8551125215        3.4349806153  MEMB      144             0.0000000000
     17430       144  POPC      C315          -39.2375370241       54.4589554571        1.4279692485  MEMB      144             0.0000000000
     17431       144  POPC      H15X          -40.0964289140       55.1306405587        1.6411929287  MEMB      144             0.0000000000
     17432       144  POPC      H15Y          -39.4068909022       53.8200593393        0.5349667071  MEMB      144             0.0000000000
     17433       144  POPC      C316          -38.0045672907       55.3516209100        1.2821638166  MEMB      144             0.0000000000
     17434       144  POPC      H16X          -37.8048458186       55.8955124782        2.2301157930  MEMB      144             0.0000000000
     17435       144  POPC      H16Y          -38.1707165478       56.1141937614        0.4914691069  MEMB      144             0.0000000000
     17436       144  POPC      H16Z          -37.1321384229       54.6781162884        1.1422336726  MEMB      144             0.0000000000
     17437       145  POPC      N              48.7887269295      -50.7403783122       20.9095612455  MEMB      145             0.0000000000
     17438       145  POPC      C12            47.7046161522      -49.8830849250       20.1229875758  MEMB      145             0.0000000000
     17439       145  POPC      H12A           47.4836078775      -49.0648666454       20.7923709844  MEMB      145             0.0000000000
     17440       145  POPC      H12B           46.7673164818      -50.4196105630       20.1261199988  MEMB      145             0.0000000000
     17441       145  POPC      C13            49.8957979340      -49.7678256690       21.2112865926  MEMB      145             0.0000000000
     17442       145  POPC      H13A           50.6560845295      -50.2808222006       21.7815487484  MEMB      145             0.0000000000
     17443       145  POPC      H13B           50.2251020184      -49.4338913746       20.2384316943  MEMB      145             0.0000000000
     17444       145  POPC      H13C           49.3961742528      -48.9298261335       21.6744637112  MEMB      145             0.0000000000
     17445       145  POPC      C14            48.1270142104      -51.4297993155       22.0336583387  MEMB      145             0.0000000000
     17446       145  POPC      H14A           47.1670722344      -51.8248605535       21.7356013620  MEMB      145             0.0000000000
     17447       145  POPC      H14B           48.6215376507      -52.3520796242       22.3005769653  MEMB      145             0.0000000000
     17448       145  POPC      H14C           47.9447460796      -50.7306167022       22.8363551335  MEMB      145             0.0000000000
     17449       145  POPC      C15            49.2492495571      -51.7868656347       19.9453066446  MEMB      145             0.0000000000
     17450       145  POPC      H15A           49.9191290900      -51.3936517426       19.1949438497  MEMB      145             0.0000000000
     17451       145  POPC      H15B           48.4256476900      -52.2627201630       19.4337967180  MEMB      145             0.0000000000
     17452       145  POPC      H15C           49.7065920751      -52.6551242525       20.3962664174  MEMB      145             0.0000000000
     17453       145  POPC      C11            47.9225849241      -49.3997624890       18.7008533325  MEMB      145             0.0000000000
     17454       145  POPC      H11A           47.1331556339      -48.6726034965       18.4138653474  MEMB      145             0.0000000000
     17455       145  POPC      H11B           47.7634271435      -50.3397430747       18.1303918636  MEMB      145             0.0000000000
     17456       145  POPC      P              49.4594844562      -48.1927797461       17.1937128243  MEMB      145             0.0000000000
     17457       145  POPC      O13            49.3957339968      -46.7189661327       17.2113955858  MEMB      145             0.0000000000
     17458       145  POPC      O14            48.5627733170      -48.6778874877       16.1103954475  MEMB      145             0.0000000000
     17459       145  POPC      O12            49.1256664145      -48.7166447558       18.5900708190  MEMB      145             0.0000000000
     17460       145  POPC      O11            51.0129999089      -48.7004919451       16.9707715803  MEMB      145             0.0000000000
     17461       145  POPC      C1             51.7829681030      -49.1844405650       18.1069674395  MEMB      145             0.0000000000
     17462       145  POPC      HA             51.3788508825      -50.1320859062       18.5228744999  MEMB      145             0.0000000000
     17463       145  POPC      HB             51.8173071469      -48.4682548448       18.9556251208  MEMB      145             0.0000000000
     17464       145  POPC      C2             53.1674893005      -49.4761917149       17.5908924671  MEMB      145             0.0000000000
     17465       145  POPC      HS             53.8930647680      -49.5397037600       18.4298368809  MEMB      145             0.0000000000
     17466       145  POPC      O21            53.7241831383      -48.6308156279       16.5216480905  MEMB      145             0.0000000000
     17467       145  POPC      C21            53.7804613388      -47.3078734943       16.7401325029  MEMB      145             0.0000000000
     17468       145  POPC      O22            53.3774144364      -46.7914384933       17.7569499736  MEMB      145             0.0000000000
     17469       145  POPC      C22            54.2023276411      -46.5689333802       15.4904306449  MEMB      145             0.0000000000
     17470       145  POPC      H2R            55.2811099976      -46.7772901395       15.3256960413  MEMB      145             0.0000000000
     17471       145  POPC      H2S            54.0012386113      -45.4955929102       15.6949420073  MEMB      145             0.0000000000
     17472       145  POPC      C3             53.2738263229      -51.0130689777       17.0945975994  MEMB      145             0.0000000000
     17473       145  POPC      HX             52.8121129543      -51.6396531513       17.8873989966  MEMB      145             0.0000000000
     17474       145  POPC      HY             54.3473546242      -51.2603511016       16.9506907611  MEMB      145             0.0000000000
     17475       145  POPC      O31            52.6448022310      -51.1663922799       15.7829376777  MEMB      145             0.0000000000
     17476       145  POPC      C31            51.5039141098      -51.8798389033       15.7507783499  MEMB      145             0.0000000000
     17477       145  POPC      O32            51.1039522148      -52.6405947145       16.5803682802  MEMB      145             0.0000000000
     17478       145  POPC      C32            50.9004045173      -51.7850954451       14.3595928956  MEMB      145             0.0000000000
     17479       145  POPC      H2X            51.1203111957      -50.7809917973       13.9380025259  MEMB      145             0.0000000000
     17480       145  POPC      H2Y            49.8193709615      -52.0382948818       14.3993126558  MEMB      145             0.0000000000
     17481       145  POPC      C23            53.4608940897      -47.1105884270       14.2395264015  MEMB      145             0.0000000000
     17482       145  POPC      H3R            52.3897171533      -47.2798054434       14.4809114211  MEMB      145             0.0000000000
     17483       145  POPC      H3S            53.8990521841      -48.0939898802       13.9651907643  MEMB      145             0.0000000000
     17484       145  POPC      C24            53.5453381334      -46.2115941468       13.0368540960  MEMB      145             0.0000000000
     17485       145  POPC      H4R            54.5899064674      -46.0424835842       12.6983288810  MEMB      145             0.0000000000
     17486       145  POPC      H4S            53.1022861949      -45.2321077363       13.3172681318  MEMB      145             0.0000000000
     17487       145  POPC      C25            52.7012607633      -46.6815364325       11.8337601310  MEMB      145             0.0000000000
     17488       145  POPC      H5R            53.1274962143      -46.2177306465       10.9185942760  MEMB      145             0.0000000000
     17489       145  POPC      H5S            51.6601323254      -46.3098199859       11.9442108287  MEMB      145             0.0000000000
     17490       145  POPC      C26            52.7932847943      -48.1117721395       11.5411296214  MEMB      145             0.0000000000
     17491       145  POPC      H6R            52.1823992783      -48.7576892664       12.2074110486  MEMB      145             0.0000000000
     17492       145  POPC      H6S            53.8308447045      -48.4242358781       11.7863989483  MEMB      145             0.0000000000
     17493       145  POPC      C27            52.4760588848      -48.4695170051       10.0952518856  MEMB      145             0.0000000000
     17494       145  POPC      H7R            52.6262923877      -49.5584577285        9.9341328619  MEMB      145             0.0000000000
     17495       145  POPC      H7S            53.2109180136      -47.8998810894        9.4871251467  MEMB      145             0.0000000000
     17496       145  POPC      C28            51.0228811048      -48.2566387515        9.5705070564  MEMB      145             0.0000000000
     17497       145  POPC      H8R            50.7212994742      -47.2076218922        9.7777103844  MEMB      145             0.0000000000
     17498       145  POPC      H8S            50.3063604239      -48.8775443621       10.1496407406  MEMB      145             0.0000000000
     17499       145  POPC      C29            50.7766920949      -48.4872772024        8.1162772768  MEMB      145             0.0000000000
     17500       145  POPC      H91            49.8167460324      -48.9693617567        7.8794270718  MEMB      145             0.0000000000
     17501       145  POPC      C210           51.4095466274      -48.1730633280        6.9606638311  MEMB      145             0.0000000000
     17502       145  POPC      H101           50.9786337855      -48.6136751026        6.0495242480  MEMB      145             0.0000000000
     17503       145  POPC      C211           52.6596596664      -47.3402149647        6.6189818864  MEMB      145             0.0000000000
     17504       145  POPC      H11R           53.4734727214      -47.9659609904        6.1941628981  MEMB      145             0.0000000000
     17505       145  POPC      H11S           52.9866254914      -47.0328315624        7.6353135697  MEMB      145             0.0000000000
     17506       145  POPC      C212           52.5273645272      -46.0996498715        5.7600572675  MEMB      145             0.0000000000
     17507       145  POPC      H12R           53.4134757581      -45.4375621704        5.8638251340  MEMB      145             0.0000000000
     17508       145  POPC      H12S           51.7314106733      -45.5483568919        6.3049010534  MEMB      145             0.0000000000
     17509       145  POPC      C213           52.5072667470      -46.3844247492        4.2662701819  MEMB      145             0.0000000000
     17510       145  POPC      H13R           51.6445452618      -47.0330848610        4.0030733212  MEMB      145             0.0000000000
     17511       145  POPC      H13S           53.4849278023      -46.9107795116        4.2281814163  MEMB      145             0.0000000000
     17512       145  POPC      C214           52.4163764937      -45.0195381073        3.4962946328  MEMB      145             0.0000000000
     17513       145  POPC      H14R           53.2849985502      -44.3839959877        3.7718006541  MEMB      145             0.0000000000
     17514       145  POPC      H14S           51.5850006738      -44.4643263282        3.9809339576  MEMB      145             0.0000000000
     17515       145  POPC      C215           52.1227074562      -45.2756470245        2.0227574228  MEMB      145             0.0000000000
     17516       145  POPC      H15R           52.0039625357      -44.2740482983        1.5569010463  MEMB      145             0.0000000000
     17517       145  POPC      H15S           51.1490159877      -45.7946890451        1.8929826943  MEMB      145             0.0000000000
     17518       145  POPC      C216           53.2154418245      -45.8942604638        1.1903209443  MEMB      145             0.0000000000
     17519       145  POPC      H16R           53.4847156984      -46.9030522586        1.5699937209  MEMB      145             0.0000000000
     17520       145  POPC      H16S           54.1295621450      -45.2704959196        1.2884193143  MEMB      145             0.0000000000
     17521       145  POPC      C217           52.8580404521      -45.9228179259       -0.3170416005  MEMB      145             0.0000000000
     17522       145  POPC      H17R           53.8113353591      -46.0929299872       -0.8616631885  MEMB      145             0.0000000000
     17523       145  POPC      H17S           52.3716051248      -45.0133674983       -0.7300812957  MEMB      145             0.0000000000
     17524       145  POPC      C218           51.9017311185      -46.9969436913       -0.7796395182  MEMB      145             0.0000000000
     17525       145  POPC      H18R           52.3701334766      -47.9932056639       -0.6300323229  MEMB      145             0.0000000000
     17526       145  POPC      H18S           51.7647225787      -46.9177515169       -1.8793105776  MEMB      145             0.0000000000
     17527       145  POPC      H18T           51.0035711563      -46.9542617950       -0.1270995104  MEMB      145             0.0000000000
     17528       145  POPC      C33            51.6540313239      -52.7860413206       13.5544879513  MEMB      145             0.0000000000
     17529       145  POPC      H3X            51.8146470350      -53.7757503240       14.0330271115  MEMB      145             0.0000000000
     17530       145  POPC      H3Y            52.6961704876      -52.4044305879       13.6058694959  MEMB      145             0.0000000000
     17531       145  POPC      C34            51.2645377874      -53.1860263950       12.1128535598  MEMB      145             0.0000000000
     17532       145  POPC      H4X            50.2736766791      -53.6803927664       12.0227607825  MEMB      145             0.0000000000
     17533       145  POPC      H4Y            52.1342176007      -53.7816663783       11.7618680124  MEMB      145             0.0000000000
     17534       145  POPC      C35            51.2132230353      -51.9369112411       11.2987945547  MEMB      145             0.0000000000
     17535       145  POPC      H5X            52.2524186137      -51.5579941797       11.1947969169  MEMB      145             0.0000000000
     17536       145  POPC      H5Y            50.6323769423      -51.1517309591       11.8283515815  MEMB      145             0.0000000000
     17537       145  POPC      C36            50.7470516813      -51.9513949196        9.8039628487  MEMB      145             0.0000000000
     17538       145  POPC      H6X            50.5238592423      -50.8851708888        9.5856221655  MEMB      145             0.0000000000
     17539       145  POPC      H6Y            49.7955728238      -52.5197824316        9.7268628631  MEMB      145             0.0000000000
     17540       145  POPC      C37            51.8972529711      -52.4805728664        8.8930707840  MEMB      145             0.0000000000
     17541       145  POPC      H7X            51.9217999329      -53.5585814476        9.1606826277  MEMB      145             0.0000000000
     17542       145  POPC      H7Y            52.8060252647      -51.8717073223        9.0873299075  MEMB      145             0.0000000000
     17543       145  POPC      C38            51.5746034292      -52.3230132694        7.4254258474  MEMB      145             0.0000000000
     17544       145  POPC      H8X            52.3147529514      -52.6530568906        6.6654446843  MEMB      145             0.0000000000
     17545       145  POPC      H8Y            51.5119245235      -51.2138561493        7.4126574616  MEMB      145             0.0000000000
     17546       145  POPC      C39            50.1653070747      -52.8487627367        7.0602737108  MEMB      145             0.0000000000
     17547       145  POPC      H9X            49.3165667429      -52.3792778276        7.6020718183  MEMB      145             0.0000000000
     17548       145  POPC      H9Y            50.1607360351      -53.9329394731        7.3028874221  MEMB      145             0.0000000000
     17549       145  POPC      C310           49.8718930391      -52.7140793201        5.5529172357  MEMB      145             0.0000000000
     17550       145  POPC      H10X           48.8295746234      -53.0042739933        5.3005664783  MEMB      145             0.0000000000
     17551       145  POPC      H10Y           50.6086953728      -53.3400281219        5.0055313053  MEMB      145             0.0000000000
     17552       145  POPC      C311           50.1812725325      -51.2463364002        5.0978968749  MEMB      145             0.0000000000
     17553       145  POPC      H11X           51.2868335405      -51.1371585426        5.0862422543  MEMB      145             0.0000000000
     17554       145  POPC      H11Y           49.6711668144      -50.5384688047        5.7856733184  MEMB      145             0.0000000000
     17555       145  POPC      C312           49.6044145789      -51.1790958969        3.7182346682  MEMB      145             0.0000000000
     17556       145  POPC      H12X           48.7363843803      -51.8684167262        3.6428618125  MEMB      145             0.0000000000
     17557       145  POPC      H12Y           50.3949062318      -51.5913246918        3.0552785588  MEMB      145             0.0000000000
     17558       145  POPC      C313           49.3322765482      -49.7297160885        3.2401512160  MEMB      145             0.0000000000
     17559       145  POPC      H13X           50.2916358343      -49.1777048799        3.3362470901  MEMB      145             0.0000000000
     17560       145  POPC      H13Y           48.6169598063      -49.3466303174        3.9990240843  MEMB      145             0.0000000000
     17561       145  POPC      C314           48.4631933466      -49.5338584707        2.0142411050  MEMB      145             0.0000000000
     17562       145  POPC      H14X           47.5844230351      -50.1786221684        2.2295629073  MEMB      145             0.0000000000
     17563       145  POPC      H14Y           48.8436508181      -49.8440099195        1.0175578707  MEMB      145             0.0000000000
     17564       145  POPC      C315           47.8710569944      -48.1137022641        1.9027535917  MEMB      145             0.0000000000
     17565       145  POPC      H15X           48.6294966350      -47.4056770047        1.5055262646  MEMB      145             0.0000000000
     17566       145  POPC      H15Y           47.6266787045      -47.6595538115        2.8868010831  MEMB      145             0.0000000000
     17567       145  POPC      C316           46.6820017720      -47.9575926024        0.9765380129  MEMB      145             0.0000000000
     17568       145  POPC      H16X           46.0548658701      -48.7870340243        1.3677508121  MEMB      145             0.0000000000
     17569       145  POPC      H16Y           47.0457177763      -48.1884676264       -0.0475360936  MEMB      145             0.0000000000
     17570       145  POPC      H16Z           46.1896929806      -46.9618459743        0.9975516496  MEMB      145             0.0000000000
     17571       146  POPC      N             -42.8928036074      -56.1236431021       17.3635183866  MEMB      146             0.0000000000
     17572       146  POPC      C12           -42.2460209811      -55.1010476250       18.2498092283  MEMB      146             0.0000000000
     17573       146  POPC      H12A          -41.7674292638      -54.4139931720       17.5676757452  MEMB      146             0.0000000000
     17574       146  POPC      H12B          -41.3477412094      -55.5369008741       18.6615439160  MEMB      146             0.0000000000
     17575       146  POPC      C13           -44.1077669928      -55.5243822701       16.7667915695  MEMB      146             0.0000000000
     17576       146  POPC      H13A          -44.0573829419      -55.4977497525       15.6882962725  MEMB      146             0.0000000000
     17577       146  POPC      H13B          -44.9437271340      -56.1964451381       16.8928951803  MEMB      146             0.0000000000
     17578       146  POPC      H13C          -44.3712823577      -54.6058723503       17.2700799597  MEMB      146             0.0000000000
     17579       146  POPC      C14           -42.0955831271      -56.5878488289       16.1987820600  MEMB      146             0.0000000000
     17580       146  POPC      H14A          -41.1464276498      -57.0364805927       16.4522254893  MEMB      146             0.0000000000
     17581       146  POPC      H14B          -42.7061988484      -57.1656751836       15.5207959206  MEMB      146             0.0000000000
     17582       146  POPC      H14C          -41.8531170033      -55.7137891151       15.6125827212  MEMB      146             0.0000000000
     17583       146  POPC      C15           -43.3365394779      -57.3622297645       18.1501022191  MEMB      146             0.0000000000
     17584       146  POPC      H15A          -42.5717365244      -57.7026730368       18.8324325936  MEMB      146             0.0000000000
     17585       146  POPC      H15B          -43.6403146100      -58.1248895130       17.4483397630  MEMB      146             0.0000000000
     17586       146  POPC      H15C          -44.1825646061      -56.8772646697       18.6142686151  MEMB      146             0.0000000000
     17587       146  POPC      C11           -43.2507105380      -54.3447142609       19.2583494944  MEMB      146             0.0000000000
     17588       146  POPC      H11A          -43.9148735934      -53.7131650789       18.6303732903  MEMB      146             0.0000000000
     17589       146  POPC      H11B          -42.5518395961      -53.6399012719       19.7574879658  MEMB      146             0.0000000000
     17590       146  POPC      P             -45.3170200974      -54.7736974577       20.6541499740  MEMB      146             0.0000000000
     17591       146  POPC      O13           -45.1036957444      -54.6850426856       22.0732573726  MEMB      146             0.0000000000
     17592       146  POPC      O14           -46.3408412163      -55.6358002973       20.0723113777  MEMB      146             0.0000000000
     17593       146  POPC      O12           -43.9305459580      -55.2167935341       20.0766054373  MEMB      146             0.0000000000
     17594       146  POPC      O11           -45.5988550385      -53.2959883446       20.1363228282  MEMB      146             0.0000000000
     17595       146  POPC      C1            -46.7890482909      -52.8241978720       19.5340683768  MEMB      146             0.0000000000
     17596       146  POPC      HA            -47.1927644734      -51.8527282835       19.8912529905  MEMB      146             0.0000000000
     17597       146  POPC      HB            -47.6560903999      -53.4993597020       19.6975165733  MEMB      146             0.0000000000
     17598       146  POPC      C2            -46.6893773938      -52.4521436611       18.0273567990  MEMB      146             0.0000000000
     17599       146  POPC      HS            -46.3491040435      -53.4189078430       17.5985187243  MEMB      146             0.0000000000
     17600       146  POPC      O21           -45.6167274702      -51.4643018016       17.9080750157  MEMB      146             0.0000000000
     17601       146  POPC      C21           -45.0023239259      -51.4735672592       16.6997665974  MEMB      146             0.0000000000
     17602       146  POPC      O22           -45.3417563312      -52.1943385001       15.7813489042  MEMB      146             0.0000000000
     17603       146  POPC      C22           -43.8999862570      -50.3534573673       16.6392280215  MEMB      146             0.0000000000
     17604       146  POPC      H2R           -43.3579909739      -50.2901522059       17.6069855045  MEMB      146             0.0000000000
     17605       146  POPC      H2S           -44.4042643481      -49.3770371704       16.4760448621  MEMB      146             0.0000000000
     17606       146  POPC      C3            -48.0196974535      -51.9274942194       17.4880941621  MEMB      146             0.0000000000
     17607       146  POPC      HX            -48.1216613341      -50.8526612864       17.7501218947  MEMB      146             0.0000000000
     17608       146  POPC      HY            -48.9571738458      -52.4021094414       17.8489263263  MEMB      146             0.0000000000
     17609       146  POPC      O31           -48.0400800569      -51.8555837948       16.1008760214  MEMB      146             0.0000000000
     17610       146  POPC      C31           -48.3413070858      -53.0527656180       15.5049779344  MEMB      146             0.0000000000
     17611       146  POPC      O32           -48.4835827033      -54.0744980906       16.0955624578  MEMB      146             0.0000000000
     17612       146  POPC      C32           -48.4909387554      -52.7980594602       14.0218599209  MEMB      146             0.0000000000
     17613       146  POPC      H2X           -47.6164889799      -52.2279651722       13.6415294610  MEMB      146             0.0000000000
     17614       146  POPC      H2Y           -49.4545316278      -52.3297845351       13.7277017618  MEMB      146             0.0000000000
     17615       146  POPC      C23           -42.7486027840      -50.6034544125       15.6508340152  MEMB      146             0.0000000000
     17616       146  POPC      H3R           -41.9938045235      -49.8027558140       15.8040746628  MEMB      146             0.0000000000
     17617       146  POPC      H3S           -43.1128768222      -50.4800440365       14.6085312259  MEMB      146             0.0000000000
     17618       146  POPC      C24           -41.9342725462      -51.9065919112       15.9883045580  MEMB      146             0.0000000000
     17619       146  POPC      H4R           -42.6192393509      -52.7811022686       15.9689879405  MEMB      146             0.0000000000
     17620       146  POPC      H4S           -41.3929927534      -51.7877161227       16.9512197369  MEMB      146             0.0000000000
     17621       146  POPC      C25           -40.7586185938      -52.1891325984       14.9628727504  MEMB      146             0.0000000000
     17622       146  POPC      H5R           -40.2860415948      -53.1720457698       15.1747067819  MEMB      146             0.0000000000
     17623       146  POPC      H5S           -39.9938186895      -51.3838563893       14.9934097746  MEMB      146             0.0000000000
     17624       146  POPC      C26           -41.1680946890      -52.3547702013       13.5354411306  MEMB      146             0.0000000000
     17625       146  POPC      H6R           -40.2542280382      -52.2282222449       12.9164463605  MEMB      146             0.0000000000
     17626       146  POPC      H6S           -41.8430603284      -51.5095118294       13.2819049782  MEMB      146             0.0000000000
     17627       146  POPC      C27           -41.7209697101      -53.7584242252       13.2338483498  MEMB      146             0.0000000000
     17628       146  POPC      H7R           -42.5269145437      -54.0989526555       13.9185484609  MEMB      146             0.0000000000
     17629       146  POPC      H7S           -40.8922787662      -54.4963613017       13.2889954006  MEMB      146             0.0000000000
     17630       146  POPC      C28           -42.1184134014      -53.9028522963       11.7198678934  MEMB      146             0.0000000000
     17631       146  POPC      H8R           -42.2408335941      -54.9784170755       11.4698784606  MEMB      146             0.0000000000
     17632       146  POPC      H8S           -41.2498746896      -53.5738040165       11.1102049340  MEMB      146             0.0000000000
     17633       146  POPC      C29           -43.2896022850      -52.9855970930       11.3944517189  MEMB      146             0.0000000000
     17634       146  POPC      H91           -44.0460775576      -53.1249881125       12.1807818980  MEMB      146             0.0000000000
     17635       146  POPC      C210          -43.4097006870      -52.0137757197       10.5159554901  MEMB      146             0.0000000000
     17636       146  POPC      H101          -44.3794439068      -51.4954761298       10.5469999820  MEMB      146             0.0000000000
     17637       146  POPC      C211          -42.3305537071      -51.6109333043        9.6212004329  MEMB      146             0.0000000000
     17638       146  POPC      H11R          -41.3775168676      -51.4761539602       10.1760657124  MEMB      146             0.0000000000
     17639       146  POPC      H11S          -42.5474815340      -50.6099728145        9.1906876077  MEMB      146             0.0000000000
     17640       146  POPC      C212          -42.0184679640      -52.4592866588        8.3511895764  MEMB      146             0.0000000000
     17641       146  POPC      H12R          -41.9244337884      -53.5508082177        8.5357404773  MEMB      146             0.0000000000
     17642       146  POPC      H12S          -41.0607971883      -52.1653686265        7.8707722511  MEMB      146             0.0000000000
     17643       146  POPC      C213          -43.2216349845      -52.3555516464        7.3169311533  MEMB      146             0.0000000000
     17644       146  POPC      H13R          -44.1376561048      -52.7562119140        7.8013870970  MEMB      146             0.0000000000
     17645       146  POPC      H13S          -43.0932794939      -53.0361958314        6.4482710395  MEMB      146             0.0000000000
     17646       146  POPC      C214          -43.4419889664      -50.9525160867        6.6681360141  MEMB      146             0.0000000000
     17647       146  POPC      H14R          -42.5124322635      -50.6418391007        6.1449481570  MEMB      146             0.0000000000
     17648       146  POPC      H14S          -43.7296734686      -50.2338306862        7.4650361207  MEMB      146             0.0000000000
     17649       146  POPC      C215          -44.5868913389      -50.7924369420        5.6977722089  MEMB      146             0.0000000000
     17650       146  POPC      H15R          -44.6679483707      -49.7587311335        5.2987692663  MEMB      146             0.0000000000
     17651       146  POPC      H15S          -45.5518586702      -50.9945167882        6.2099465141  MEMB      146             0.0000000000
     17652       146  POPC      C216          -44.4802361356      -51.6809986559        4.4690175325  MEMB      146             0.0000000000
     17653       146  POPC      H16R          -44.6856635630      -52.6960287920        4.8713030989  MEMB      146             0.0000000000
     17654       146  POPC      H16S          -43.4169723959      -51.7615230233        4.1570764229  MEMB      146             0.0000000000
     17655       146  POPC      C217          -45.5384576470      -51.3989382726        3.4134760070  MEMB      146             0.0000000000
     17656       146  POPC      H17R          -45.1530961181      -50.5105753031        2.8688403077  MEMB      146             0.0000000000
     17657       146  POPC      H17S          -46.5534232051      -51.2698494852        3.8464914790  MEMB      146             0.0000000000
     17658       146  POPC      C218          -45.6834055959      -52.4091769318        2.2867770019  MEMB      146             0.0000000000
     17659       146  POPC      H18R          -44.6681067475      -52.5762007140        1.8677403747  MEMB      146             0.0000000000
     17660       146  POPC      H18S          -46.3117736204      -52.0924884582        1.4270205377  MEMB      146             0.0000000000
     17661       146  POPC      H18T          -46.0233689378      -53.4079927018        2.6347908132  MEMB      146             0.0000000000
     17662       146  POPC      C33           -48.5641215920      -54.1072112813       13.2542932644  MEMB      146             0.0000000000
     17663       146  POPC      H3X           -49.0271101320      -54.0220094377       12.2479620806  MEMB      146             0.0000000000
     17664       146  POPC      H3Y           -49.3213721323      -54.7813636460       13.7086180513  MEMB      146             0.0000000000
     17665       146  POPC      C34           -47.2179844327      -54.7937143842       13.1257185929  MEMB      146             0.0000000000
     17666       146  POPC      H4X           -47.0110978181      -55.3851604462       14.0431664553  MEMB      146             0.0000000000
     17667       146  POPC      H4Y           -46.3423502975      -54.1200439700       13.0084412266  MEMB      146             0.0000000000
     17668       146  POPC      C35           -47.2179298861      -55.6867213088       11.8937268607  MEMB      146             0.0000000000
     17669       146  POPC      H5X           -47.1065873113      -54.9943579645       11.0320099102  MEMB      146             0.0000000000
     17670       146  POPC      H5Y           -48.1336873583      -56.3146282942       11.9316969153  MEMB      146             0.0000000000
     17671       146  POPC      C36           -45.9050815944      -56.5385614827       11.9446293899  MEMB      146             0.0000000000
     17672       146  POPC      H6X           -46.1641946260      -57.3425390663       12.6662950360  MEMB      146             0.0000000000
     17673       146  POPC      H6Y           -45.1365753610      -55.9819940378       12.5225151363  MEMB      146             0.0000000000
     17674       146  POPC      C37           -45.5238234826      -57.1566107127       10.6473666553  MEMB      146             0.0000000000
     17675       146  POPC      H7X           -46.3526715582      -57.7025130094       10.1480454578  MEMB      146             0.0000000000
     17676       146  POPC      H7Y           -44.8313818606      -57.9789584687       10.9277052411  MEMB      146             0.0000000000
     17677       146  POPC      C38           -44.9290502784      -56.2040495032        9.6483091435  MEMB      146             0.0000000000
     17678       146  POPC      H8X           -43.9701740752      -55.7965463057       10.0340789717  MEMB      146             0.0000000000
     17679       146  POPC      H8Y           -45.6012781866      -55.3246166351        9.5532922667  MEMB      146             0.0000000000
     17680       146  POPC      C39           -44.6598301157      -56.8708086776        8.3074925151  MEMB      146             0.0000000000
     17681       146  POPC      H9X           -45.6115673611      -57.3370656519        7.9741431498  MEMB      146             0.0000000000
     17682       146  POPC      H9Y           -43.9624668791      -57.6911850268        8.5813325020  MEMB      146             0.0000000000
     17683       146  POPC      C310          -44.1414731023      -55.8814568888        7.3215637147  MEMB      146             0.0000000000
     17684       146  POPC      H10X          -43.0952201292      -55.6996595177        7.6480991122  MEMB      146             0.0000000000
     17685       146  POPC      H10Y          -44.7689322058      -54.9789995182        7.4833868469  MEMB      146             0.0000000000
     17686       146  POPC      C311          -44.0497528944      -56.4661500616        5.8797552798  MEMB      146             0.0000000000
     17687       146  POPC      H11X          -43.9121230111      -57.5678923304        5.9190321117  MEMB      146             0.0000000000
     17688       146  POPC      H11Y          -43.1226370485      -56.1235899391        5.3723796297  MEMB      146             0.0000000000
     17689       146  POPC      C312          -45.2298240123      -56.1350386154        4.9330396583  MEMB      146             0.0000000000
     17690       146  POPC      H12X          -45.4115812035      -55.0417224031        4.8559359188  MEMB      146             0.0000000000
     17691       146  POPC      H12Y          -46.1156810440      -56.5217832355        5.4807690077  MEMB      146             0.0000000000
     17692       146  POPC      C313          -45.1537781409      -56.8342029890        3.5946832471  MEMB      146             0.0000000000
     17693       146  POPC      H13X          -46.0990612342      -56.5878529263        3.0654643572  MEMB      146             0.0000000000
     17694       146  POPC      H13Y          -45.2202039212      -57.9417790713        3.6511092031  MEMB      146             0.0000000000
     17695       146  POPC      C314          -43.8985492651      -56.4456839480        2.8158600450  MEMB      146             0.0000000000
     17696       146  POPC      H14X          -43.0824432262      -57.0369706427        3.2834843755  MEMB      146             0.0000000000
     17697       146  POPC      H14Y          -43.7070992310      -55.3584187183        2.9404487545  MEMB      146             0.0000000000
     17698       146  POPC      C315          -44.0225980766      -56.7996585182        1.2529588008  MEMB      146             0.0000000000
     17699       146  POPC      H15X          -44.8878827389      -56.2468870647        0.8286390676  MEMB      146             0.0000000000
     17700       146  POPC      H15Y          -44.2984219898      -57.8688327608        1.1300413115  MEMB      146             0.0000000000
     17701       146  POPC      C316          -42.8092541419      -56.4446157174        0.4316359861  MEMB      146             0.0000000000
     17702       146  POPC      H16X          -42.4255449433      -55.4635615231        0.7846533536  MEMB      146             0.0000000000
     17703       146  POPC      H16Y          -43.0431141441      -56.4075067028       -0.6538367786  MEMB      146             0.0000000000
     17704       146  POPC      H16Z          -41.9229335894      -57.1008743323        0.5661028436  MEMB      146             0.0000000000
     17705       147  POPC      N              44.4320030080       53.0756717307       18.4999182380  MEMB      147             0.0000000000
     17706       147  POPC      C12            45.4577193000       53.3119714547       17.4754381621  MEMB      147             0.0000000000
     17707       147  POPC      H12A           44.8725702802       53.3982872756       16.5718064470  MEMB      147             0.0000000000
     17708       147  POPC      H12B           46.0307667548       52.3970235364       17.4456583659  MEMB      147             0.0000000000
     17709       147  POPC      C13            44.9628937729       52.5520856677       19.8725194224  MEMB      147             0.0000000000
     17710       147  POPC      H13A           45.7944308863       51.8696541315       19.7764297631  MEMB      147             0.0000000000
     17711       147  POPC      H13B           45.4362237142       53.4169051387       20.3134796882  MEMB      147             0.0000000000
     17712       147  POPC      H13C           44.2629949546       52.0717618743       20.5402249870  MEMB      147             0.0000000000
     17713       147  POPC      C14            43.7216489591       54.3539991126       18.7584415928  MEMB      147             0.0000000000
     17714       147  POPC      H14A           42.7914883878       54.2230978831       19.2914200625  MEMB      147             0.0000000000
     17715       147  POPC      H14B           44.3353198455       54.9479026056       19.4195669285  MEMB      147             0.0000000000
     17716       147  POPC      H14C           43.5170652757       54.8634814433       17.8284022489  MEMB      147             0.0000000000
     17717       147  POPC      C15            43.4997816247       52.0675547636       17.9351017096  MEMB      147             0.0000000000
     17718       147  POPC      H15A           44.1322918873       51.2056074039       17.7822049398  MEMB      147             0.0000000000
     17719       147  POPC      H15B           43.0018616418       52.4233276139       17.0452134276  MEMB      147             0.0000000000
     17720       147  POPC      H15C           42.7369009846       51.7454913456       18.6284183497  MEMB      147             0.0000000000
     17721       147  POPC      C11            46.3728071672       54.5047210754       17.6334813859  MEMB      147             0.0000000000
     17722       147  POPC      H11A           45.8309232092       55.4744783311       17.6494055516  MEMB      147             0.0000000000
     17723       147  POPC      H11B           46.9880283670       54.5481236595       16.7093925154  MEMB      147             0.0000000000
     17724       147  POPC      P              47.2965972047       55.5566716531       19.8284375434  MEMB      147             0.0000000000
     17725       147  POPC      O13            48.4214390829       55.4151400752       20.7625168030  MEMB      147             0.0000000000
     17726       147  POPC      O14            45.9745831771       55.6365352336       20.5846596122  MEMB      147             0.0000000000
     17727       147  POPC      O12            47.1839939560       54.3537441395       18.7966611179  MEMB      147             0.0000000000
     17728       147  POPC      O11            47.5853228686       56.7577686771       18.8528244148  MEMB      147             0.0000000000
     17729       147  POPC      C1             46.8559980264       57.9781812105       19.0494381354  MEMB      147             0.0000000000
     17730       147  POPC      HA             47.4634339010       58.6399329753       19.7032172288  MEMB      147             0.0000000000
     17731       147  POPC      HB             45.7907683048       57.8572014330       19.3409354646  MEMB      147             0.0000000000
     17732       147  POPC      C2             46.8998446425       58.7055824391       17.6823189645  MEMB      147             0.0000000000
     17733       147  POPC      HS             46.5192222888       59.7463092134       17.7619133810  MEMB      147             0.0000000000
     17734       147  POPC      O21            46.0530437216       57.9058832193       16.8284300906  MEMB      147             0.0000000000
     17735       147  POPC      C21            45.4290755881       58.4758566376       15.8051774450  MEMB      147             0.0000000000
     17736       147  POPC      O22            45.4981714719       59.6573362360       15.4738411479  MEMB      147             0.0000000000
     17737       147  POPC      C22            44.5675970455       57.5047977003       15.0004287028  MEMB      147             0.0000000000
     17738       147  POPC      H2R            43.5611990333       57.3095131581       15.4286204119  MEMB      147             0.0000000000
     17739       147  POPC      H2S            45.0644642555       56.5112483857       14.9830082980  MEMB      147             0.0000000000
     17740       147  POPC      C3             48.3548501757       58.7543190999       17.1636256680  MEMB      147             0.0000000000
     17741       147  POPC      HX             48.7891056043       57.7384239209       17.2806740145  MEMB      147             0.0000000000
     17742       147  POPC      HY             48.9481061006       59.4981444693       17.7372910316  MEMB      147             0.0000000000
     17743       147  POPC      O31            48.4149087108       59.1359827768       15.7348588733  MEMB      147             0.0000000000
     17744       147  POPC      C31            48.9315359992       58.2573377859       14.8449911321  MEMB      147             0.0000000000
     17745       147  POPC      O32            49.2948721703       57.1232553192       15.1086625384  MEMB      147             0.0000000000
     17746       147  POPC      C32            48.7104420109       58.8175883108       13.3970002309  MEMB      147             0.0000000000
     17747       147  POPC      H2X            49.2027049913       59.8110175772       13.3256093339  MEMB      147             0.0000000000
     17748       147  POPC      H2Y            47.6220876288       59.0398156598       13.4175040897  MEMB      147             0.0000000000
     17749       147  POPC      C23            44.5098373129       57.9551822187       13.4959872296  MEMB      147             0.0000000000
     17750       147  POPC      H3R            45.4641847600       58.4016551274       13.1435612959  MEMB      147             0.0000000000
     17751       147  POPC      H3S            43.7638061450       58.7209117868       13.1936346360  MEMB      147             0.0000000000
     17752       147  POPC      C24            44.2158917920       56.8103609301       12.5078692386  MEMB      147             0.0000000000
     17753       147  POPC      H4R            43.1993588712       56.4715285569       12.8014243869  MEMB      147             0.0000000000
     17754       147  POPC      H4S            44.8382782131       55.9174246705       12.7306280547  MEMB      147             0.0000000000
     17755       147  POPC      C25            44.0567189818       57.1775134109       11.0192910023  MEMB      147             0.0000000000
     17756       147  POPC      H5R            44.9435459891       57.7576099462       10.6856034801  MEMB      147             0.0000000000
     17757       147  POPC      H5S            43.1715121954       57.8176691994       10.8169782314  MEMB      147             0.0000000000
     17758       147  POPC      C26            44.0239518922       55.9803076909       10.1200233600  MEMB      147             0.0000000000
     17759       147  POPC      H6R            43.0585698501       55.4585364744       10.2935545960  MEMB      147             0.0000000000
     17760       147  POPC      H6S            44.8530898396       55.3367958478       10.4843641848  MEMB      147             0.0000000000
     17761       147  POPC      C27            44.2423967158       56.2573454467        8.6078332969  MEMB      147             0.0000000000
     17762       147  POPC      H7R            44.2717206833       55.2539608227        8.1317235323  MEMB      147             0.0000000000
     17763       147  POPC      H7S            45.2859944049       56.6207530337        8.4931176772  MEMB      147             0.0000000000
     17764       147  POPC      C28            43.1922194291       57.1216937137        7.9975979193  MEMB      147             0.0000000000
     17765       147  POPC      H8R            43.3594731390       57.1801101563        6.9008139278  MEMB      147             0.0000000000
     17766       147  POPC      H8S            43.3157937754       58.1133825231        8.4829876263  MEMB      147             0.0000000000
     17767       147  POPC      C29            41.7770065701       56.4911409484        8.1833541972  MEMB      147             0.0000000000
     17768       147  POPC      H91            41.3172890712       56.6359507841        9.1721369697  MEMB      147             0.0000000000
     17769       147  POPC      C210           41.0254006068       55.9230838227        7.2021896307  MEMB      147             0.0000000000
     17770       147  POPC      H101           40.0296974065       55.5144579583        7.4293461412  MEMB      147             0.0000000000
     17771       147  POPC      C211           41.4519246823       55.7976624635        5.7147796377  MEMB      147             0.0000000000
     17772       147  POPC      H11R           41.8190665423       56.7787014893        5.3445226685  MEMB      147             0.0000000000
     17773       147  POPC      H11S           40.5360695979       55.5960526422        5.1190575265  MEMB      147             0.0000000000
     17774       147  POPC      C212           42.5705991894       54.8099003882        5.6042626049  MEMB      147             0.0000000000
     17775       147  POPC      H12R           42.2547440483       53.8111396211        5.9744425712  MEMB      147             0.0000000000
     17776       147  POPC      H12S           43.4248384022       55.1672007114        6.2182107581  MEMB      147             0.0000000000
     17777       147  POPC      C213           42.9643872317       54.6350715886        4.1253677044  MEMB      147             0.0000000000
     17778       147  POPC      H13R           43.1897344525       55.6780027494        3.8157963166  MEMB      147             0.0000000000
     17779       147  POPC      H13S           42.1927780281       54.1434469448        3.4950935083  MEMB      147             0.0000000000
     17780       147  POPC      C214           44.2863391338       53.9267108586        3.8183549902  MEMB      147             0.0000000000
     17781       147  POPC      H14R           44.2406717274       52.8850480840        4.2019875117  MEMB      147             0.0000000000
     17782       147  POPC      H14S           45.0607403510       54.4665930854        4.4041460054  MEMB      147             0.0000000000
     17783       147  POPC      C215           44.6424953517       53.8756180597        2.3754977910  MEMB      147             0.0000000000
     17784       147  POPC      H15R           45.5628243698       53.2615956302        2.2740487117  MEMB      147             0.0000000000
     17785       147  POPC      H15S           45.0338153428       54.8277463274        1.9575964227  MEMB      147             0.0000000000
     17786       147  POPC      C216           43.4885369430       53.4408977564        1.4575295961  MEMB      147             0.0000000000
     17787       147  POPC      H16R           42.7065248249       54.2296410984        1.4832560991  MEMB      147             0.0000000000
     17788       147  POPC      H16S           43.1432719930       52.4703350539        1.8736067310  MEMB      147             0.0000000000
     17789       147  POPC      C217           43.7868201350       53.3121538792       -0.0046964924  MEMB      147             0.0000000000
     17790       147  POPC      H17R           44.8609224090       53.1383073863       -0.2292030613  MEMB      147             0.0000000000
     17791       147  POPC      H17S           43.6848062205       54.3287031480       -0.4412089711  MEMB      147             0.0000000000
     17792       147  POPC      C218           42.8948801034       52.4144155789       -0.9396451339  MEMB      147             0.0000000000
     17793       147  POPC      H18R           41.8212105115       52.6606681262       -0.7950281105  MEMB      147             0.0000000000
     17794       147  POPC      H18S           43.1392111627       51.3581445169       -0.6969224897  MEMB      147             0.0000000000
     17795       147  POPC      H18T           43.1137715464       52.5929484650       -2.0141384669  MEMB      147             0.0000000000
     17796       147  POPC      C33            49.0513887652       57.8498338547       12.2739510508  MEMB      147             0.0000000000
     17797       147  POPC      H3X            48.7651771440       56.7987569113       12.4922199729  MEMB      147             0.0000000000
     17798       147  POPC      H3Y            50.1507799319       57.8250822457       12.1156881559  MEMB      147             0.0000000000
     17799       147  POPC      C34            48.4470386771       58.4242556626       10.9782403654  MEMB      147             0.0000000000
     17800       147  POPC      H4X            48.7818560512       59.4709144804       10.8147677754  MEMB      147             0.0000000000
     17801       147  POPC      H4Y            47.3618310075       58.5661442969       11.1693237088  MEMB      147             0.0000000000
     17802       147  POPC      C35            48.6369475739       57.4682832224        9.8042222153  MEMB      147             0.0000000000
     17803       147  POPC      H5X            48.3326415051       56.4179611312       10.0005436060  MEMB      147             0.0000000000
     17804       147  POPC      H5Y            49.7176383296       57.4003152560        9.5556075493  MEMB      147             0.0000000000
     17805       147  POPC      C36            47.8960330407       58.0663775390        8.5976884721  MEMB      147             0.0000000000
     17806       147  POPC      H6X            48.3397831706       59.0594437451        8.3713546123  MEMB      147             0.0000000000
     17807       147  POPC      H6Y            46.8103465481       58.1671856956        8.8108624853  MEMB      147             0.0000000000
     17808       147  POPC      C37            48.0986574126       57.3048202768        7.3018342865  MEMB      147             0.0000000000
     17809       147  POPC      H7X            47.7130831726       56.2718361843        7.4382074946  MEMB      147             0.0000000000
     17810       147  POPC      H7Y            49.1705627269       57.3460213802        7.0126253289  MEMB      147             0.0000000000
     17811       147  POPC      C38            47.4947193071       57.9312322139        6.1160602869  MEMB      147             0.0000000000
     17812       147  POPC      H8X            48.0837266828       58.8645088846        5.9880521469  MEMB      147             0.0000000000
     17813       147  POPC      H8Y            46.5116574654       58.4204991196        6.2849628421  MEMB      147             0.0000000000
     17814       147  POPC      C39            47.6021622314       57.1394323497        4.7968654259  MEMB      147             0.0000000000
     17815       147  POPC      H9X            46.7647703312       56.4160195651        4.6980207879  MEMB      147             0.0000000000
     17816       147  POPC      H9Y            48.5046304953       56.5103392153        4.6415788240  MEMB      147             0.0000000000
     17817       147  POPC      C310           47.4994103513       57.9938163577        3.5661880337  MEMB      147             0.0000000000
     17818       147  POPC      H10X           48.4241424647       58.6039857411        3.4832159185  MEMB      147             0.0000000000
     17819       147  POPC      H10Y           46.5224715579       58.5186946340        3.6326297811  MEMB      147             0.0000000000
     17820       147  POPC      C311           47.4393666275       57.1712645181        2.2871880416  MEMB      147             0.0000000000
     17821       147  POPC      H11X           46.4385096461       56.7172987326        2.1243340999  MEMB      147             0.0000000000
     17822       147  POPC      H11Y           48.2870303309       56.4548949513        2.2361796636  MEMB      147             0.0000000000
     17823       147  POPC      C312           47.6721659088       58.0549706035        1.0194057880  MEMB      147             0.0000000000
     17824       147  POPC      H12X           48.7469559604       58.1076377210        0.7430485390  MEMB      147             0.0000000000
     17825       147  POPC      H12Y           47.2905942518       59.0536381666        1.3217082920  MEMB      147             0.0000000000
     17826       147  POPC      C313           46.8904798255       57.6303069919       -0.2681213346  MEMB      147             0.0000000000
     17827       147  POPC      H13X           47.3372865422       58.2042475902       -1.1079288553  MEMB      147             0.0000000000
     17828       147  POPC      H13Y           45.8031563743       57.8041016783       -0.1203249300  MEMB      147             0.0000000000
     17829       147  POPC      C314           47.0176593195       56.1323161355       -0.6625400561  MEMB      147             0.0000000000
     17830       147  POPC      H14X           46.2541119680       55.5083891186       -0.1506484054  MEMB      147             0.0000000000
     17831       147  POPC      H14Y           48.0309924340       55.7869306002       -0.3655779146  MEMB      147             0.0000000000
     17832       147  POPC      C315           46.8030027546       55.8738924572       -2.1764327229  MEMB      147             0.0000000000
     17833       147  POPC      H15X           47.6245948272       56.4663239327       -2.6328680876  MEMB      147             0.0000000000
     17834       147  POPC      H15Y           45.9282849521       56.4514090366       -2.5447593977  MEMB      147             0.0000000000
     17835       147  POPC      C316           46.8448381915       54.4675565483       -2.7044699583  MEMB      147             0.0000000000
     17836       147  POPC      H16X           45.8933361230       54.0458157984       -3.0931859208  MEMB      147             0.0000000000
     17837       147  POPC      H16Y           47.2294405136       53.8050332589       -1.8998192199  MEMB      147             0.0000000000
     17838       147  POPC      H16Z           47.5848839854       54.3585791132       -3.5259190095  MEMB      147             0.0000000000
     17839       148  POPC      N              42.0929575264      -56.5228216446       18.4449030513  MEMB      148             0.0000000000
     17840       148  POPC      C12            43.6199995276      -56.6336058287       18.7465576205  MEMB      148             0.0000000000
     17841       148  POPC      H12A           43.9955853530      -57.1300954044       17.8640422023  MEMB      148             0.0000000000
     17842       148  POPC      H12B           43.7717211241      -57.1098455827       19.7039375380  MEMB      148             0.0000000000
     17843       148  POPC      C13            41.5875413070      -57.9234050958       18.5228054808  MEMB      148             0.0000000000
     17844       148  POPC      H13A           41.8066603476      -58.4725214202       17.6190034176  MEMB      148             0.0000000000
     17845       148  POPC      H13B           41.9271538593      -58.4421681895       19.4070837652  MEMB      148             0.0000000000
     17846       148  POPC      H13C           40.5091811781      -57.9715884059       18.4879060103  MEMB      148             0.0000000000
     17847       148  POPC      C14            41.3995168405      -55.8395871014       19.6243363459  MEMB      148             0.0000000000
     17848       148  POPC      H14A           41.6783848774      -56.1529254354       20.6195507790  MEMB      148             0.0000000000
     17849       148  POPC      H14B           41.6917297487      -54.8001569191       19.5999123266  MEMB      148             0.0000000000
     17850       148  POPC      H14C           40.3222362155      -55.9138358346       19.6431446119  MEMB      148             0.0000000000
     17851       148  POPC      C15            41.8467456507      -55.7983660121       17.1957010133  MEMB      148             0.0000000000
     17852       148  POPC      H15A           42.0988171022      -54.7484818788       17.2202620884  MEMB      148             0.0000000000
     17853       148  POPC      H15B           40.8244908074      -56.0288411095       16.9344035224  MEMB      148             0.0000000000
     17854       148  POPC      H15C           42.5306190948      -56.1549353253       16.4396749232  MEMB      148             0.0000000000
     17855       148  POPC      C11            44.4407014321      -55.4079558850       18.6350722240  MEMB      148             0.0000000000
     17856       148  POPC      H11A           44.3325147187      -55.0911302876       17.5757147470  MEMB      148             0.0000000000
     17857       148  POPC      H11B           45.4712294939      -55.7961675167       18.7821245116  MEMB      148             0.0000000000
     17858       148  POPC      P              44.5054110243      -52.9983017101       19.6307691516  MEMB      148             0.0000000000
     17859       148  POPC      O13            45.9734478489      -52.6930893181       19.6470494088  MEMB      148             0.0000000000
     17860       148  POPC      O14            43.7273856366      -52.3453104850       20.7229436881  MEMB      148             0.0000000000
     17861       148  POPC      O12            44.2385133556      -54.5637561966       19.6879350876  MEMB      148             0.0000000000
     17862       148  POPC      O11            43.9785620465      -52.6811184200       18.1419269616  MEMB      148             0.0000000000
     17863       148  POPC      C1             43.8112584472      -51.3356069710       17.6974934636  MEMB      148             0.0000000000
     17864       148  POPC      HA             44.7454367199      -50.7790143969       17.9251706535  MEMB      148             0.0000000000
     17865       148  POPC      HB             42.9277670966      -50.8028743531       18.1097552368  MEMB      148             0.0000000000
     17866       148  POPC      C2             43.6544279319      -51.1720785717       16.1584764031  MEMB      148             0.0000000000
     17867       148  POPC      HS             43.1764296891      -50.1701664582       16.1136393607  MEMB      148             0.0000000000
     17868       148  POPC      O21            42.9113254460      -52.1800870123       15.6416424780  MEMB      148             0.0000000000
     17869       148  POPC      C21            42.4351129362      -52.1914878862       14.3560673121  MEMB      148             0.0000000000
     17870       148  POPC      O22            42.5622392761      -51.2257053318       13.5821880576  MEMB      148             0.0000000000
     17871       148  POPC      C22            41.8958275900      -53.6018601276       14.0445563755  MEMB      148             0.0000000000
     17872       148  POPC      H2R            41.2447817555      -53.4950915391       13.1506542850  MEMB      148             0.0000000000
     17873       148  POPC      H2S            41.1986528287      -53.9129566605       14.8517039177  MEMB      148             0.0000000000
     17874       148  POPC      C3             45.0591724341      -51.2100892349       15.4262385562  MEMB      148             0.0000000000
     17875       148  POPC      HX             45.6069503794      -50.3011537970       15.7550191477  MEMB      148             0.0000000000
     17876       148  POPC      HY             44.7962032039      -51.1090875642       14.3515448170  MEMB      148             0.0000000000
     17877       148  POPC      O31            45.7218980315      -52.4522236506       15.7121820177  MEMB      148             0.0000000000
     17878       148  POPC      C31            46.7517711754      -52.6799177047       14.9017290401  MEMB      148             0.0000000000
     17879       148  POPC      O32            47.0655257237      -51.9740760672       13.9899970992  MEMB      148             0.0000000000
     17880       148  POPC      C32            47.4398609778      -53.9463950783       15.4331110667  MEMB      148             0.0000000000
     17881       148  POPC      H2X            46.7790544706      -54.6950794954       15.9200683659  MEMB      148             0.0000000000
     17882       148  POPC      H2Y            48.1758777840      -53.6904036711       16.2249878012  MEMB      148             0.0000000000
     17883       148  POPC      C23            43.1177739425      -54.4303095850       13.6527400396  MEMB      148             0.0000000000
     17884       148  POPC      H3R            43.6648959612      -54.6364332020       14.5974577694  MEMB      148             0.0000000000
     17885       148  POPC      H3S            43.8379167868      -53.8436404526       13.0432036850  MEMB      148             0.0000000000
     17886       148  POPC      C24            42.8643609269      -55.7526846148       13.1067416694  MEMB      148             0.0000000000
     17887       148  POPC      H4R            42.5095266958      -56.5097662254       13.8383436716  MEMB      148             0.0000000000
     17888       148  POPC      H4S            43.7971724303      -56.2796866785       12.8127136865  MEMB      148             0.0000000000
     17889       148  POPC      C25            41.8720027481      -55.7133709969       11.9424500416  MEMB      148             0.0000000000
     17890       148  POPC      H5R            42.3105546277      -55.2270558097       11.0449586082  MEMB      148             0.0000000000
     17891       148  POPC      H5S            40.8675052778      -55.2799955537       12.1360772240  MEMB      148             0.0000000000
     17892       148  POPC      C26            41.5689159237      -57.1366400064       11.3497487776  MEMB      148             0.0000000000
     17893       148  POPC      H6R            40.7639147409      -56.9919404197       10.5978476452  MEMB      148             0.0000000000
     17894       148  POPC      H6S            41.0449334846      -57.7144654322       12.1408757133  MEMB      148             0.0000000000
     17895       148  POPC      C27            42.6743063099      -57.8639741171       10.6523324911  MEMB      148             0.0000000000
     17896       148  POPC      H7R            43.3381519846      -58.3934220598       11.3687927994  MEMB      148             0.0000000000
     17897       148  POPC      H7S            43.2655868914      -57.0867468078       10.1225911268  MEMB      148             0.0000000000
     17898       148  POPC      C28            42.3313102566      -58.8619788040        9.4837847079  MEMB      148             0.0000000000
     17899       148  POPC      H8R            41.6724087970      -59.6537209929        9.9000942977  MEMB      148             0.0000000000
     17900       148  POPC      H8S            43.2532550425      -59.2891839480        9.0345241364  MEMB      148             0.0000000000
     17901       148  POPC      C29            41.5537590851      -58.1880327301        8.3406968226  MEMB      148             0.0000000000
     17902       148  POPC      H91            40.4995492999      -57.9870779421        8.5820648627  MEMB      148             0.0000000000
     17903       148  POPC      C210           42.0249003641      -58.0676332120        7.0882466582  MEMB      148             0.0000000000
     17904       148  POPC      H101           41.3201445304      -57.7405789634        6.3095590028  MEMB      148             0.0000000000
     17905       148  POPC      C211           43.3478150473      -58.5581490736        6.4237205973  MEMB      148             0.0000000000
     17906       148  POPC      H11R           42.9882960592      -59.1369799604        5.5462121621  MEMB      148             0.0000000000
     17907       148  POPC      H11S           43.7288433782      -59.4074970825        7.0301412258  MEMB      148             0.0000000000
     17908       148  POPC      C212           44.4440423357      -57.5079419897        6.0250734335  MEMB      148             0.0000000000
     17909       148  POPC      H12R           45.3643293935      -58.0343747457        5.6930169719  MEMB      148             0.0000000000
     17910       148  POPC      H12S           44.6830715479      -56.9015532494        6.9247836711  MEMB      148             0.0000000000
     17911       148  POPC      C213           44.0007290846      -56.4260621705        4.9844226934  MEMB      148             0.0000000000
     17912       148  POPC      H13R           44.6970337454      -55.5634660142        5.0579663600  MEMB      148             0.0000000000
     17913       148  POPC      H13S           42.9659277057      -56.0514976987        5.1367663229  MEMB      148             0.0000000000
     17914       148  POPC      C214           43.9722572466      -56.8759034825        3.4135452120  MEMB      148             0.0000000000
     17915       148  POPC      H14R           44.8527240369      -57.5310311953        3.2406092307  MEMB      148             0.0000000000
     17916       148  POPC      H14S           44.1543123178      -55.9529254348        2.8225386161  MEMB      148             0.0000000000
     17917       148  POPC      C215           42.7034263829      -57.6274705756        3.0165193312  MEMB      148             0.0000000000
     17918       148  POPC      H15R           41.8605521175      -56.9714462963        3.3223237075  MEMB      148             0.0000000000
     17919       148  POPC      H15S           42.5033005468      -58.5812005312        3.5500641534  MEMB      148             0.0000000000
     17920       148  POPC      C216           42.5766378236      -57.7484275558        1.5247707649  MEMB      148             0.0000000000
     17921       148  POPC      H16R           43.4493846958      -58.3436148558        1.1806982635  MEMB      148             0.0000000000
     17922       148  POPC      H16S           42.6653768460      -56.7316961747        1.0857913542  MEMB      148             0.0000000000
     17923       148  POPC      C217           41.3411587706      -58.5096082129        1.0228351081  MEMB      148             0.0000000000
     17924       148  POPC      H17R           40.4226919522      -58.2869130684        1.6069120938  MEMB      148             0.0000000000
     17925       148  POPC      H17S           41.5782969135      -59.5949609306        1.0130267872  MEMB      148             0.0000000000
     17926       148  POPC      C218           41.1658139166      -58.0846150358       -0.4037413550  MEMB      148             0.0000000000
     17927       148  POPC      H18R           40.6938542184      -57.0806911214       -0.4646712292  MEMB      148             0.0000000000
     17928       148  POPC      H18S           40.4369438387      -58.6725296759       -1.0015928323  MEMB      148             0.0000000000
     17929       148  POPC      H18T           42.0921721867      -58.0587823641       -1.0165335513  MEMB      148             0.0000000000
     17930       148  POPC      C33            48.1055732403      -54.6833802229       14.2787430244  MEMB      148             0.0000000000
     17931       148  POPC      H3X            48.9073351704      -55.2843521269       14.7586716439  MEMB      148             0.0000000000
     17932       148  POPC      H3Y            48.5820579916      -53.9937594726       13.5495611126  MEMB      148             0.0000000000
     17933       148  POPC      C34            47.3914892840      -55.7937287542       13.4251504464  MEMB      148             0.0000000000
     17934       148  POPC      H4X            46.6054395474      -56.2269351291       14.0799629609  MEMB      148             0.0000000000
     17935       148  POPC      H4Y            48.2042761879      -56.4574613826       13.0602429580  MEMB      148             0.0000000000
     17936       148  POPC      C35            46.6858973749      -55.2045081042       12.1272924296  MEMB      148             0.0000000000
     17937       148  POPC      H5X            45.8468028287      -54.5551535283       12.4568068873  MEMB      148             0.0000000000
     17938       148  POPC      H5Y            46.3337749384      -55.9821008041       11.4161802181  MEMB      148             0.0000000000
     17939       148  POPC      C36            47.6017148829      -54.2651455940       11.3355382235  MEMB      148             0.0000000000
     17940       148  POPC      H6X            48.5637421901      -54.7854122410       11.1402253737  MEMB      148             0.0000000000
     17941       148  POPC      H6Y            47.8179050614      -53.4072245256       12.0075162417  MEMB      148             0.0000000000
     17942       148  POPC      C37            47.1678856616      -53.7166735507        9.9914180118  MEMB      148             0.0000000000
     17943       148  POPC      H7X            46.9454988285      -54.4225134022        9.1627711177  MEMB      148             0.0000000000
     17944       148  POPC      H7Y            47.9555904384      -53.0115590878        9.6498688575  MEMB      148             0.0000000000
     17945       148  POPC      C38            45.8067416514      -52.9802807703        9.9976432898  MEMB      148             0.0000000000
     17946       148  POPC      H8X            45.8712066993      -52.1168585451       10.6938233309  MEMB      148             0.0000000000
     17947       148  POPC      H8Y            45.1743469359      -53.7558776988       10.4801857583  MEMB      148             0.0000000000
     17948       148  POPC      C39            45.4631527917      -52.6107959309        8.5687674469  MEMB      148             0.0000000000
     17949       148  POPC      H9X            45.5285128843      -53.4717952827        7.8696752015  MEMB      148             0.0000000000
     17950       148  POPC      H9Y            46.2763776003      -51.8939336306        8.3256728501  MEMB      148             0.0000000000
     17951       148  POPC      C310           44.0526696482      -52.0541215107        8.4206043046  MEMB      148             0.0000000000
     17952       148  POPC      H10X           43.8836477930      -51.1541763737        9.0497718619  MEMB      148             0.0000000000
     17953       148  POPC      H10Y           43.4395203216      -52.8698334233        8.8599023987  MEMB      148             0.0000000000
     17954       148  POPC      C311           43.8126797787      -51.6888338242        6.9704180172  MEMB      148             0.0000000000
     17955       148  POPC      H11X           44.3245515933      -52.4012790907        6.2887066862  MEMB      148             0.0000000000
     17956       148  POPC      H11Y           44.1818445006      -50.6708472996        6.7219385715  MEMB      148             0.0000000000
     17957       148  POPC      C312           42.3037981290      -51.7736306273        6.5909773637  MEMB      148             0.0000000000
     17958       148  POPC      H12X           41.7116972307      -51.0414740454        7.1806247770  MEMB      148             0.0000000000
     17959       148  POPC      H12Y           41.9227043560      -52.7073282497        7.0571289070  MEMB      148             0.0000000000
     17960       148  POPC      C313           42.0641138806      -51.6186625440        5.0850592310  MEMB      148             0.0000000000
     17961       148  POPC      H13X           42.5182484237      -50.6595289303        4.7562035798  MEMB      148             0.0000000000
     17962       148  POPC      H13Y           40.9622011334      -51.6248182977        4.9433838300  MEMB      148             0.0000000000
     17963       148  POPC      C314           42.6304115692      -52.7344534056        4.1271813613  MEMB      148             0.0000000000
     17964       148  POPC      H14X           42.3457847434      -53.7635904824        4.4340776683  MEMB      148             0.0000000000
     17965       148  POPC      H14Y           43.7375583807      -52.6487244182        4.1617885814  MEMB      148             0.0000000000
     17966       148  POPC      C315           41.9400837705      -52.5740785005        2.7097676415  MEMB      148             0.0000000000
     17967       148  POPC      H15X           41.9551296941      -51.4781607048        2.5279483033  MEMB      148             0.0000000000
     17968       148  POPC      H15Y           40.8622545152      -52.8363445099        2.7715844642  MEMB      148             0.0000000000
     17969       148  POPC      C316           42.5852194637      -53.3193319413        1.6404404573  MEMB      148             0.0000000000
     17970       148  POPC      H16X           41.9842357329      -53.1268491186        0.7260621887  MEMB      148             0.0000000000
     17971       148  POPC      H16Y           42.6705843757      -54.4062217837        1.8542271197  MEMB      148             0.0000000000
     17972       148  POPC      H16Z           43.6398120901      -53.0154968318        1.4676999272  MEMB      148             0.0000000000
     17973       149  POPC      N             -54.0186243288      -42.4205072015       19.1285555133  MEMB      149             0.0000000000
     17974       149  POPC      C12           -53.3668442808      -43.5051915884       18.4113734686  MEMB      149             0.0000000000
     17975       149  POPC      H12A          -52.4594438952      -43.7753340539       18.9310344861  MEMB      149             0.0000000000
     17976       149  POPC      H12B          -53.0656189363      -43.0995108731       17.4568650123  MEMB      149             0.0000000000
     17977       149  POPC      C13           -54.6688828186      -42.8548035151       20.4774437565  MEMB      149             0.0000000000
     17978       149  POPC      H13A          -55.3198365642      -42.0412445972       20.7616638772  MEMB      149             0.0000000000
     17979       149  POPC      H13B          -55.2854512000      -43.7322753646       20.3498253862  MEMB      149             0.0000000000
     17980       149  POPC      H13C          -54.0174938107      -43.0407427480       21.3185852908  MEMB      149             0.0000000000
     17981       149  POPC      C14           -52.9651625989      -41.3997102625       19.4693993338  MEMB      149             0.0000000000
     17982       149  POPC      H14A          -53.3486196135      -40.4266929680       19.7388399738  MEMB      149             0.0000000000
     17983       149  POPC      H14B          -52.2326546714      -41.7493912423       20.1818285373  MEMB      149             0.0000000000
     17984       149  POPC      H14C          -52.4611596510      -41.2422988639       18.5272727111  MEMB      149             0.0000000000
     17985       149  POPC      C15           -55.0785201340      -41.7841712177       18.2309980050  MEMB      149             0.0000000000
     17986       149  POPC      H15A          -54.5808118217      -41.4741931326       17.3240249236  MEMB      149             0.0000000000
     17987       149  POPC      H15B          -55.6160743213      -40.9457223340       18.6486567472  MEMB      149             0.0000000000
     17988       149  POPC      H15C          -55.7153453286      -42.5780473053       17.8695917069  MEMB      149             0.0000000000
     17989       149  POPC      C11           -54.0822294021      -44.9200844345       18.1409795832  MEMB      149             0.0000000000
     17990       149  POPC      H11A          -53.2272279692      -45.6094162878       17.9733037870  MEMB      149             0.0000000000
     17991       149  POPC      H11B          -54.7152766365      -44.7596255421       17.2421886699  MEMB      149             0.0000000000
     17992       149  POPC      P             -56.2832258570      -45.9364217715       19.0859758383  MEMB      149             0.0000000000
     17993       149  POPC      O13           -57.1735853691      -44.8204766561       19.4056432925  MEMB      149             0.0000000000
     17994       149  POPC      O14           -56.4617474503      -47.1656057005       19.9013404997  MEMB      149             0.0000000000
     17995       149  POPC      O12           -54.8101241360      -45.4312156041       19.2139685226  MEMB      149             0.0000000000
     17996       149  POPC      O11           -56.5124724255      -46.2707327217       17.5343221828  MEMB      149             0.0000000000
     17997       149  POPC      C1            -56.1315242933      -47.5933417586       17.0396837788  MEMB      149             0.0000000000
     17998       149  POPC      HA            -57.0026336950      -48.2426458822       17.2718341590  MEMB      149             0.0000000000
     17999       149  POPC      HB            -55.2984803317      -48.0624805098       17.6056055359  MEMB      149             0.0000000000
     18000       149  POPC      C2            -55.9792982653      -47.5946739069       15.4720356763  MEMB      149             0.0000000000
     18001       149  POPC      HS            -55.8109340670      -48.6413232625       15.1396203919  MEMB      149             0.0000000000
     18002       149  POPC      O21           -55.0172012625      -46.6155264881       15.0297600569  MEMB      149             0.0000000000
     18003       149  POPC      C21           -53.7971300808      -46.9497294171       15.1394686908  MEMB      149             0.0000000000
     18004       149  POPC      O22           -53.2862441743      -47.9667032228       15.5990166062  MEMB      149             0.0000000000
     18005       149  POPC      C22           -52.8228978022      -45.8660205872       14.5439627101  MEMB      149             0.0000000000
     18006       149  POPC      H2R           -52.1217213330      -45.5013529495       15.3247889952  MEMB      149             0.0000000000
     18007       149  POPC      H2S           -53.3846169630      -45.0637302695       14.0194409981  MEMB      149             0.0000000000
     18008       149  POPC      C3            -57.3485866337      -47.2573167307       14.8473796430  MEMB      149             0.0000000000
     18009       149  POPC      HX            -58.0519571775      -48.0093532991       15.2645506873  MEMB      149             0.0000000000
     18010       149  POPC      HY            -57.3808013130      -47.5081858690       13.7655531996  MEMB      149             0.0000000000
     18011       149  POPC      O31           -57.7414133234      -45.8833784689       15.0441232305  MEMB      149             0.0000000000
     18012       149  POPC      C31           -57.3393871746      -44.9480639567       14.2280709846  MEMB      149             0.0000000000
     18013       149  POPC      O32           -56.6831726212      -45.0442010796       13.1745738129  MEMB      149             0.0000000000
     18014       149  POPC      C32           -57.5707233354      -43.5716222850       14.8857476928  MEMB      149             0.0000000000
     18015       149  POPC      H2X           -57.6737460921      -43.6944563872       15.9851197085  MEMB      149             0.0000000000
     18016       149  POPC      H2Y           -58.5406728329      -43.1004399478       14.6183420948  MEMB      149             0.0000000000
     18017       149  POPC      C23           -51.6866961670      -46.4336112684       13.6258416324  MEMB      149             0.0000000000
     18018       149  POPC      H3R           -51.3188026762      -47.3782118226       14.0804900539  MEMB      149             0.0000000000
     18019       149  POPC      H3S           -50.8269364381      -45.7377899482       13.7305646480  MEMB      149             0.0000000000
     18020       149  POPC      C24           -52.2233179781      -46.4733106662       12.1853063831  MEMB      149             0.0000000000
     18021       149  POPC      H4R           -52.5499487630      -45.4513425523       11.8968368154  MEMB      149             0.0000000000
     18022       149  POPC      H4S           -53.0900469252      -47.1662378734       12.1309574366  MEMB      149             0.0000000000
     18023       149  POPC      C25           -51.2036210021      -46.9932321590       11.0855510583  MEMB      149             0.0000000000
     18024       149  POPC      H5R           -50.8772863708      -48.0000831176       11.4233053043  MEMB      149             0.0000000000
     18025       149  POPC      H5S           -50.3399506785      -46.3218063986       11.2794114203  MEMB      149             0.0000000000
     18026       149  POPC      C26           -51.6038338963      -47.0691341649        9.6197273872  MEMB      149             0.0000000000
     18027       149  POPC      H6R           -52.2122387630      -47.9782694468        9.4257231846  MEMB      149             0.0000000000
     18028       149  POPC      H6S           -50.7020538573      -47.3276121296        9.0244932578  MEMB      149             0.0000000000
     18029       149  POPC      C27           -52.3714392941      -45.8355127787        9.1454648621  MEMB      149             0.0000000000
     18030       149  POPC      H7R           -52.2153758527      -44.9398821086        9.7840661381  MEMB      149             0.0000000000
     18031       149  POPC      H7S           -53.4317403104      -45.9918960064        9.4380864947  MEMB      149             0.0000000000
     18032       149  POPC      C28           -52.1391449844      -45.2400839615        7.7181898753  MEMB      149             0.0000000000
     18033       149  POPC      H8R           -52.6283311293      -44.2471683923        7.6226043189  MEMB      149             0.0000000000
     18034       149  POPC      H8S           -52.5615685273      -46.0076541056        7.0350239357  MEMB      149             0.0000000000
     18035       149  POPC      C29           -50.6917800646      -45.1828454689        7.4505097799  MEMB      149             0.0000000000
     18036       149  POPC      H91           -50.1614504371      -44.3689297333        7.9665437907  MEMB      149             0.0000000000
     18037       149  POPC      C210          -49.9430763305      -45.9538933658        6.7269032613  MEMB      149             0.0000000000
     18038       149  POPC      H101          -48.8920647855      -45.6604906023        6.5880159785  MEMB      149             0.0000000000
     18039       149  POPC      C211          -50.3947946511      -47.1274885697        5.9417710224  MEMB      149             0.0000000000
     18040       149  POPC      H11R          -51.1123772418      -47.7819489605        6.4812871198  MEMB      149             0.0000000000
     18041       149  POPC      H11S          -49.5866736323      -47.8659102480        5.7520479921  MEMB      149             0.0000000000
     18042       149  POPC      C212          -50.9416807854      -46.6616234699        4.5666374847  MEMB      149             0.0000000000
     18043       149  POPC      H12R          -50.0916294024      -46.4148299791        3.8952012040  MEMB      149             0.0000000000
     18044       149  POPC      H12S          -51.5334328248      -45.7414499299        4.7601087622  MEMB      149             0.0000000000
     18045       149  POPC      C213          -51.7323432156      -47.8587903646        4.0153527421  MEMB      149             0.0000000000
     18046       149  POPC      H13R          -52.5989154201      -47.9680049862        4.7019723366  MEMB      149             0.0000000000
     18047       149  POPC      H13S          -51.0634283500      -48.7450610052        4.0527416314  MEMB      149             0.0000000000
     18048       149  POPC      C214          -52.3929234874      -47.5424996928        2.6437389795  MEMB      149             0.0000000000
     18049       149  POPC      H14R          -51.7057119466      -47.5366158405        1.7707974489  MEMB      149             0.0000000000
     18050       149  POPC      H14S          -52.9430056053      -46.5987664679        2.8464653758  MEMB      149             0.0000000000
     18051       149  POPC      C215          -53.5107952681      -48.6135138896        2.2456164169  MEMB      149             0.0000000000
     18052       149  POPC      H15R          -54.3440674705      -48.4937609284        2.9706251839  MEMB      149             0.0000000000
     18053       149  POPC      H15S          -53.0826022584      -49.6386800134        2.2431414779  MEMB      149             0.0000000000
     18054       149  POPC      C216          -54.0138920167      -48.3172576152        0.8614204817  MEMB      149             0.0000000000
     18055       149  POPC      H16R          -53.1554676756      -48.3477439597        0.1567945560  MEMB      149             0.0000000000
     18056       149  POPC      H16S          -54.4078718725      -47.2801676552        0.9209651680  MEMB      149             0.0000000000
     18057       149  POPC      C217          -55.0589587757      -49.3285618059        0.4066269151  MEMB      149             0.0000000000
     18058       149  POPC      H17R          -55.9169309214      -49.3688371100        1.1113120889  MEMB      149             0.0000000000
     18059       149  POPC      H17S          -54.5740435993      -50.3083654284        0.2087273772  MEMB      149             0.0000000000
     18060       149  POPC      C218          -55.6911699193      -48.9260592786       -0.9541568797  MEMB      149             0.0000000000
     18061       149  POPC      H18R          -55.1499741562      -49.0620116631       -1.9148574781  MEMB      149             0.0000000000
     18062       149  POPC      H18S          -56.0961226759      -47.8919746100       -0.9224849855  MEMB      149             0.0000000000
     18063       149  POPC      H18T          -56.6451108093      -49.4925750497       -1.0122742595  MEMB      149             0.0000000000
     18064       149  POPC      C33           -56.4408633613      -42.5888562253       14.4840000494  MEMB      149             0.0000000000
     18065       149  POPC      H3X           -55.4661596139      -43.1209552829       14.5178266037  MEMB      149             0.0000000000
     18066       149  POPC      H3Y           -56.3865901537      -41.8398516393       15.3027599277  MEMB      149             0.0000000000
     18067       149  POPC      C34           -56.6751775868      -41.8437183979       13.1814412404  MEMB      149             0.0000000000
     18068       149  POPC      H4X           -57.4530755724      -41.0729610603       13.3688677357  MEMB      149             0.0000000000
     18069       149  POPC      H4Y           -57.0935144341      -42.4942128881       12.3838371111  MEMB      149             0.0000000000
     18070       149  POPC      C35           -55.3753101870      -41.2146875362       12.5741369983  MEMB      149             0.0000000000
     18071       149  POPC      H5X           -54.4463467014      -41.8103574646       12.7026873873  MEMB      149             0.0000000000
     18072       149  POPC      H5Y           -55.1415318354      -40.2766589705       13.1216503818  MEMB      149             0.0000000000
     18073       149  POPC      C36           -55.6608526656      -40.7465605563       11.1658497851  MEMB      149             0.0000000000
     18074       149  POPC      H6X           -54.7987513502      -40.1485463186       10.8004986883  MEMB      149             0.0000000000
     18075       149  POPC      H6Y           -56.5724414678      -40.1180919402       11.0744496816  MEMB      149             0.0000000000
     18076       149  POPC      C37           -55.7043893060      -41.9420179136       10.2197066387  MEMB      149             0.0000000000
     18077       149  POPC      H7X           -56.6713819337      -42.4836974539       10.2960583450  MEMB      149             0.0000000000
     18078       149  POPC      H7Y           -54.8997622281      -42.6646123542       10.4741738327  MEMB      149             0.0000000000
     18079       149  POPC      C38           -55.4673390940      -41.5976850089        8.7651406765  MEMB      149             0.0000000000
     18080       149  POPC      H8X           -54.4929891222      -41.0860586269        8.6128192452  MEMB      149             0.0000000000
     18081       149  POPC      H8Y           -56.3962647201      -41.0293273133        8.5451688552  MEMB      149             0.0000000000
     18082       149  POPC      C39           -55.4980271765      -42.7865946798        7.7999497709  MEMB      149             0.0000000000
     18083       149  POPC      H9X           -56.3851022698      -43.3738425984        8.1201975278  MEMB      149             0.0000000000
     18084       149  POPC      H9Y           -54.6279359174      -43.4007730053        8.1162522449  MEMB      149             0.0000000000
     18085       149  POPC      C310          -55.2227082624      -42.4451395590        6.3289607991  MEMB      149             0.0000000000
     18086       149  POPC      H10X          -54.4915390135      -41.6208164874        6.1868199206  MEMB      149             0.0000000000
     18087       149  POPC      H10Y          -56.1524981016      -42.0452072888        5.8708490128  MEMB      149             0.0000000000
     18088       149  POPC      C311          -54.8919675051      -43.5904895556        5.3303255915  MEMB      149             0.0000000000
     18089       149  POPC      H11X          -54.1023677833      -44.2962994288        5.6660129933  MEMB      149             0.0000000000
     18090       149  POPC      H11Y          -54.6056474616      -43.0848021756        4.3834243647  MEMB      149             0.0000000000
     18091       149  POPC      C312          -56.0477928584      -44.4292456982        5.0724587291  MEMB      149             0.0000000000
     18092       149  POPC      H12X          -56.9646874059      -43.8342934976        4.8733166495  MEMB      149             0.0000000000
     18093       149  POPC      H12Y          -56.2786302537      -45.0717471395        5.9489446847  MEMB      149             0.0000000000
     18094       149  POPC      C313          -55.6934737217      -45.4050969285        3.9421588990  MEMB      149             0.0000000000
     18095       149  POPC      H13X          -54.8721081145      -46.1005384332        4.2179133221  MEMB      149             0.0000000000
     18096       149  POPC      H13Y          -55.4946657278      -44.7844876145        3.0423591661  MEMB      149             0.0000000000
     18097       149  POPC      C314          -56.8317537022      -46.4734205686        3.7511210538  MEMB      149             0.0000000000
     18098       149  POPC      H14X          -57.1320414320      -46.8795504613        4.7406700929  MEMB      149             0.0000000000
     18099       149  POPC      H14Y          -56.4973430382      -47.3352198750        3.1348481483  MEMB      149             0.0000000000
     18100       149  POPC      C315          -58.1561531201      -45.9422400735        3.2456701611  MEMB      149             0.0000000000
     18101       149  POPC      H15X          -58.6586288613      -45.1552557549        3.8477462181  MEMB      149             0.0000000000
     18102       149  POPC      H15Y          -58.9706662249      -46.6976387473        3.2618513736  MEMB      149             0.0000000000
     18103       149  POPC      C316          -58.1030326943      -45.3140891539        1.8987895834  MEMB      149             0.0000000000
     18104       149  POPC      H16X          -59.1482493543      -45.1400008962        1.5648175299  MEMB      149             0.0000000000
     18105       149  POPC      H16Y          -57.6859553975      -46.0498401213        1.1783456141  MEMB      149             0.0000000000
     18106       149  POPC      H16Z          -57.5092682102      -44.3790587839        1.9852933256  MEMB      149             0.0000000000
     18107       150  POPC      N              57.5407062910       41.5850398291       18.6454855295  MEMB      150             0.0000000000
     18108       150  POPC      C12            57.7329485287       42.4301804463       19.9038915377  MEMB      150             0.0000000000
     18109       150  POPC      H12A           58.7884311588       42.3439251082       20.1158263526  MEMB      150             0.0000000000
     18110       150  POPC      H12B           57.1614377966       42.1247651319       20.7678920528  MEMB      150             0.0000000000
     18111       150  POPC      C13            58.4356097027       42.1810787068       17.5449150072  MEMB      150             0.0000000000
     18112       150  POPC      H13A           59.4721158606       42.3190200981       17.8151507513  MEMB      150             0.0000000000
     18113       150  POPC      H13B           58.4093124454       41.6554296392       16.6018340380  MEMB      150             0.0000000000
     18114       150  POPC      H13C           58.0712212332       43.1681395335       17.3013334146  MEMB      150             0.0000000000
     18115       150  POPC      C14            57.9014390927       40.1537536917       18.9856303386  MEMB      150             0.0000000000
     18116       150  POPC      H14A           58.9711980200       40.0322943047       19.0708563566  MEMB      150             0.0000000000
     18117       150  POPC      H14B           57.4109424447       39.8804153733       19.9081806721  MEMB      150             0.0000000000
     18118       150  POPC      H14C           57.5369464589       39.4581036435       18.2442693258  MEMB      150             0.0000000000
     18119       150  POPC      C15            56.0719575452       41.6141381443       18.2015268723  MEMB      150             0.0000000000
     18120       150  POPC      H15A           55.9282214043       42.6558620451       17.9554554754  MEMB      150             0.0000000000
     18121       150  POPC      H15B           55.5438250896       41.3860392873       19.1155548180  MEMB      150             0.0000000000
     18122       150  POPC      H15C           55.7832054754       40.9180580710       17.4279023478  MEMB      150             0.0000000000
     18123       150  POPC      C11            57.4742955704       43.9192961748       19.6860421291  MEMB      150             0.0000000000
     18124       150  POPC      H11A           58.2550138297       44.3581630231       19.0286259468  MEMB      150             0.0000000000
     18125       150  POPC      H11B           57.6459236103       44.3965219784       20.6745360621  MEMB      150             0.0000000000
     18126       150  POPC      P              55.5780009864       45.6459838834       19.2548094836  MEMB      150             0.0000000000
     18127       150  POPC      O13            56.2850140549       46.3363808487       20.3433081926  MEMB      150             0.0000000000
     18128       150  POPC      O14            54.1222100686       45.7183681437       19.2985790859  MEMB      150             0.0000000000
     18129       150  POPC      O12            56.0989394054       44.1782816646       19.2130967633  MEMB      150             0.0000000000
     18130       150  POPC      O11            56.1034665553       46.2509620540       17.9227150566  MEMB      150             0.0000000000
     18131       150  POPC      C1             56.7908135459       45.5489277763       16.9167084097  MEMB      150             0.0000000000
     18132       150  POPC      HA             56.5557909005       44.4632669796       16.9373463660  MEMB      150             0.0000000000
     18133       150  POPC      HB             57.8832142904       45.5532597338       17.1191013049  MEMB      150             0.0000000000
     18134       150  POPC      C2             56.5491209701       45.9515849603       15.4470385109  MEMB      150             0.0000000000
     18135       150  POPC      HS             56.9127874103       46.9934525404       15.3182758109  MEMB      150             0.0000000000
     18136       150  POPC      O21            55.1418190488       45.9054666666       15.3441488413  MEMB      150             0.0000000000
     18137       150  POPC      C21            54.5321431230       46.7443912722       14.5307390624  MEMB      150             0.0000000000
     18138       150  POPC      O22            55.0817417083       47.6903193794       14.0353385008  MEMB      150             0.0000000000
     18139       150  POPC      C22            53.1377129429       46.2728672491       14.1377095457  MEMB      150             0.0000000000
     18140       150  POPC      H2R            52.4528830893       47.0893786710       13.8236433679  MEMB      150             0.0000000000
     18141       150  POPC      H2S            52.5593874642       45.9444930953       15.0276707075  MEMB      150             0.0000000000
     18142       150  POPC      C3             57.1722261062       44.9630428093       14.3864616494  MEMB      150             0.0000000000
     18143       150  POPC      HX             56.8441624570       43.9311003831       14.6350378241  MEMB      150             0.0000000000
     18144       150  POPC      HY             58.2749716318       44.9501214577       14.5210218690  MEMB      150             0.0000000000
     18145       150  POPC      O31            56.9150943775       45.4701283048       13.1021191578  MEMB      150             0.0000000000
     18146       150  POPC      C31            57.5238919458       46.4892403304       12.5634249396  MEMB      150             0.0000000000
     18147       150  POPC      O32            58.3812036117       47.2025892216       13.1193318681  MEMB      150             0.0000000000
     18148       150  POPC      C32            56.9143252553       46.8307949418       11.1426894015  MEMB      150             0.0000000000
     18149       150  POPC      H2X            56.5111989010       47.8561598795       11.2856473505  MEMB      150             0.0000000000
     18150       150  POPC      H2Y            56.1047133226       46.0755261143       11.0509355375  MEMB      150             0.0000000000
     18151       150  POPC      C23            53.2496427317       45.2306561675       13.0019783969  MEMB      150             0.0000000000
     18152       150  POPC      H3R            53.8087875812       45.6879854549       12.1578645978  MEMB      150             0.0000000000
     18153       150  POPC      H3S            52.2235132767       45.0261545995       12.6284032514  MEMB      150             0.0000000000
     18154       150  POPC      C24            53.7066958314       43.7632218511       13.3363159153  MEMB      150             0.0000000000
     18155       150  POPC      H4R            53.0143895146       43.4987795394       14.1640253448  MEMB      150             0.0000000000
     18156       150  POPC      H4S            54.7509784437       43.8305943553       13.7094858225  MEMB      150             0.0000000000
     18157       150  POPC      C25            53.3631617981       42.9646279132       12.0287192908  MEMB      150             0.0000000000
     18158       150  POPC      H5R            52.3676677643       43.1366400070       11.5664158924  MEMB      150             0.0000000000
     18159       150  POPC      H5S            53.3275690541       41.9294561131       12.4305570632  MEMB      150             0.0000000000
     18160       150  POPC      C26            54.4368830996       43.0090894313       10.9530298907  MEMB      150             0.0000000000
     18161       150  POPC      H6R            55.3137113775       42.6393994532       11.5264606633  MEMB      150             0.0000000000
     18162       150  POPC      H6S            54.6798530012       44.0160625973       10.5514183132  MEMB      150             0.0000000000
     18163       150  POPC      C27            54.2362543887       42.0706044534        9.7611965249  MEMB      150             0.0000000000
     18164       150  POPC      H7R            54.1814774436       41.0803288109       10.2618708363  MEMB      150             0.0000000000
     18165       150  POPC      H7S            55.1524444768       42.0830283394        9.1328954401  MEMB      150             0.0000000000
     18166       150  POPC      C28            52.9483181292       42.1673360481        8.8594666494  MEMB      150             0.0000000000
     18167       150  POPC      H8R            52.0817107076       41.7820929521        9.4381726568  MEMB      150             0.0000000000
     18168       150  POPC      H8S            53.0876216869       41.5778299842        7.9281251583  MEMB      150             0.0000000000
     18169       150  POPC      C29            52.5320381059       43.4060461315        8.1466579398  MEMB      150             0.0000000000
     18170       150  POPC      H91            51.4590837723       43.6444866930        8.1028955667  MEMB      150             0.0000000000
     18171       150  POPC      C210           53.3040000883       44.1305816737        7.3430429443  MEMB      150             0.0000000000
     18172       150  POPC      H101           52.8536357029       45.0782926490        7.0128679959  MEMB      150             0.0000000000
     18173       150  POPC      C211           54.7840831154       43.8818410789        6.9571703073  MEMB      150             0.0000000000
     18174       150  POPC      H11R           55.1300099823       42.8298358625        7.0462803378  MEMB      150             0.0000000000
     18175       150  POPC      H11S           55.5292361685       44.5655679480        7.4171546330  MEMB      150             0.0000000000
     18176       150  POPC      C212           54.9459723444       44.1520998055        5.3753785481  MEMB      150             0.0000000000
     18177       150  POPC      H12R           56.0153721151       43.9729445152        5.1332866470  MEMB      150             0.0000000000
     18178       150  POPC      H12S           54.6107934475       45.1950598085        5.1904178841  MEMB      150             0.0000000000
     18179       150  POPC      C213           53.9793084516       43.3083647772        4.4805862221  MEMB      150             0.0000000000
     18180       150  POPC      H13R           52.9678874536       43.5228884856        4.8871916453  MEMB      150             0.0000000000
     18181       150  POPC      H13S           54.1531714320       42.2124558357        4.5360509676  MEMB      150             0.0000000000
     18182       150  POPC      C214           53.9229101602       43.8510475123        3.0445737707  MEMB      150             0.0000000000
     18183       150  POPC      H14R           55.0055625867       43.8939973980        2.7989326526  MEMB      150             0.0000000000
     18184       150  POPC      H14S           53.4780311960       44.8683789106        3.0066207885  MEMB      150             0.0000000000
     18185       150  POPC      C215           53.2811318126       42.8238025846        2.1395380056  MEMB      150             0.0000000000
     18186       150  POPC      H15R           52.2079602023       42.6348857156        2.3561802110  MEMB      150             0.0000000000
     18187       150  POPC      H15S           53.8832871013       41.9165016807        2.3598440284  MEMB      150             0.0000000000
     18188       150  POPC      C216           53.5055309086       43.0884773216        0.6122193486  MEMB      150             0.0000000000
     18189       150  POPC      H16R           53.0545782521       42.2749634300        0.0046349441  MEMB      150             0.0000000000
     18190       150  POPC      H16S           54.5813326154       43.1399362344        0.3395960258  MEMB      150             0.0000000000
     18191       150  POPC      C217           52.8995470278       44.3663830539        0.0285708409  MEMB      150             0.0000000000
     18192       150  POPC      H17R           52.8319664851       44.2073508040       -1.0689080345  MEMB      150             0.0000000000
     18193       150  POPC      H17S           53.4784342334       45.2730625340        0.3063164039  MEMB      150             0.0000000000
     18194       150  POPC      C218           51.4027446990       44.7488432636        0.3718456049  MEMB      150             0.0000000000
     18195       150  POPC      H18R           51.0570390546       45.5324518975       -0.3358021936  MEMB      150             0.0000000000
     18196       150  POPC      H18S           51.3629787169       44.9185118030        1.4690943687  MEMB      150             0.0000000000
     18197       150  POPC      H18T           50.7401313333       43.9187301702        0.0459988235  MEMB      150             0.0000000000
     18198       150  POPC      C33            57.9579011659       46.6887392671       10.0119515151  MEMB      150             0.0000000000
     18199       150  POPC      H3X            58.1612708310       45.6053374336        9.8733799791  MEMB      150             0.0000000000
     18200       150  POPC      H3Y            58.9369998082       47.0994491328       10.3390670441  MEMB      150             0.0000000000
     18201       150  POPC      C34            57.5886576451       47.4385149406        8.7246519340  MEMB      150             0.0000000000
     18202       150  POPC      H4X            57.6504042415       48.5266338661        8.9403035321  MEMB      150             0.0000000000
     18203       150  POPC      H4Y            56.5818353677       47.1650987624        8.3427185880  MEMB      150             0.0000000000
     18204       150  POPC      C35            58.4760525596       47.1287111004        7.4594924088  MEMB      150             0.0000000000
     18205       150  POPC      H5X            58.4853702854       46.0246738347        7.3356549459  MEMB      150             0.0000000000
     18206       150  POPC      H5Y            59.5301945584       47.4787990819        7.4828123358  MEMB      150             0.0000000000
     18207       150  POPC      C36            57.9746783139       47.7184960746        6.1243499707  MEMB      150             0.0000000000
     18208       150  POPC      H6X            57.6520139773       48.7815545775        6.1350736308  MEMB      150             0.0000000000
     18209       150  POPC      H6Y            57.1059774960       47.0650689837        5.8947575082  MEMB      150             0.0000000000
     18210       150  POPC      C37            59.0432629936       47.6323767414        4.9828100041  MEMB      150             0.0000000000
     18211       150  POPC      H7X            59.4029395283       46.5817906028        4.9478466770  MEMB      150             0.0000000000
     18212       150  POPC      H7Y            59.8662625642       48.3693384964        5.1006260299  MEMB      150             0.0000000000
     18213       150  POPC      C38            58.4217519154       48.0037896697        3.5629788504  MEMB      150             0.0000000000
     18214       150  POPC      H8X            57.7651726688       48.8876242401        3.7115085554  MEMB      150             0.0000000000
     18215       150  POPC      H8Y            57.6900622873       47.2156980973        3.2839397501  MEMB      150             0.0000000000
     18216       150  POPC      C39            59.4604957100       48.2359657148        2.4347224185  MEMB      150             0.0000000000
     18217       150  POPC      H9X            60.4996094210       48.4374146669        2.7723341702  MEMB      150             0.0000000000
     18218       150  POPC      H9Y            59.1153958165       49.1628958856        1.9287321480  MEMB      150             0.0000000000
     18219       150  POPC      C310           59.7206069168       47.0120196768        1.5097021621  MEMB      150             0.0000000000
     18220       150  POPC      H10X           60.2361153041       47.1842208961        0.5407246546  MEMB      150             0.0000000000
     18221       150  POPC      H10Y           58.7351663914       46.5435516475        1.3005022357  MEMB      150             0.0000000000
     18222       150  POPC      C311           60.5874178901       45.8709051758        2.2335431122  MEMB      150             0.0000000000
     18223       150  POPC      H11X           59.9963810157       45.6256948001        3.1417655534  MEMB      150             0.0000000000
     18224       150  POPC      H11Y           61.5595695873       46.3348133115        2.5056291859  MEMB      150             0.0000000000
     18225       150  POPC      C312           61.0381539100       44.6741313576        1.4610544910  MEMB      150             0.0000000000
     18226       150  POPC      H12X           61.7488443022       44.1404452483        2.1277010749  MEMB      150             0.0000000000
     18227       150  POPC      H12Y           61.5402722667       45.1088774981        0.5704405430  MEMB      150             0.0000000000
     18228       150  POPC      C313           59.9310119390       43.7933512521        0.9773037726  MEMB      150             0.0000000000
     18229       150  POPC      H13X           60.4275552966       43.0073953408        0.3689963185  MEMB      150             0.0000000000
     18230       150  POPC      H13Y           59.3113890917       44.3921406805        0.2759923416  MEMB      150             0.0000000000
     18231       150  POPC      C314           59.2064121910       42.9855017861        2.0626004081  MEMB      150             0.0000000000
     18232       150  POPC      H14X           58.9278891396       43.6539510445        2.9051683865  MEMB      150             0.0000000000
     18233       150  POPC      H14Y           59.8545965057       42.1468856993        2.3956190211  MEMB      150             0.0000000000
     18234       150  POPC      C315           57.8321806020       42.5104876328        1.6565290446  MEMB      150             0.0000000000
     18235       150  POPC      H15X           57.7876511742       42.0281234884        0.6566986378  MEMB      150             0.0000000000
     18236       150  POPC      H15Y           57.0748177622       43.3221285622        1.7008194438  MEMB      150             0.0000000000
     18237       150  POPC      C316           57.4796804888       41.3996073480        2.6157294138  MEMB      150             0.0000000000
     18238       150  POPC      H16X           58.2314016356       40.5867077646        2.5239126297  MEMB      150             0.0000000000
     18239       150  POPC      H16Y           56.5797415891       40.8236849588        2.3111897077  MEMB      150             0.0000000000
     18240       150  POPC      H16Z           57.3414570620       41.7827844486        3.6493584175  MEMB      150             0.0000000000
     18241       151  POPC      N             -55.2319006107       47.2378228899       18.4449030513  MEMB      151             0.0000000000
     18242       151  POPC      C12           -53.8442273884       47.8847335768       18.7465576205  MEMB      151             0.0000000000
     18243       151  POPC      H12A          -53.2743995009       47.6340090471       17.8640422023  MEMB      151             0.0000000000
     18244       151  POPC      H12B          -53.4797845990       47.5426733490       19.7039375380  MEMB      151             0.0000000000
     18245       151  POPC      C13           -54.9912476135       45.7684129085       18.5228054808  MEMB      151             0.0000000000
     18246       151  POPC      H13A          -54.5324488660       45.3955247201       17.6190034176  MEMB      151             0.0000000000
     18247       151  POPC      H13B          -54.4419916409       45.4807156551       19.4070837652  MEMB      151             0.0000000000
     18248       151  POPC      H13C          -55.9096240558       45.2011678917       18.4879060103  MEMB      151             0.0000000000
     18249       151  POPC      C14           -56.1702883605       47.4968554302       19.6243363459  MEMB      151             0.0000000000
     18250       151  POPC      H14A          -55.7741286638       47.3589939480       20.6195507790  MEMB      151             0.0000000000
     18251       151  POPC      H14B          -56.4212717998       48.5470034201       19.5999123266  MEMB      151             0.0000000000
     18252       151  POPC      H14C          -57.0750280952       46.9073705433       19.6431446119  MEMB      151             0.0000000000
     18253       151  POPC      C15           -55.7997525727       47.7506585366       17.1957010133  MEMB      151             0.0000000000
     18254       151  POPC      H15A          -56.0908867108       48.7903881282       17.2202620884  MEMB      151             0.0000000000
     18255       151  POPC      H15B          -56.5803504137       47.0515228233       16.9344035224  MEMB      151             0.0000000000
     18256       151  POPC      H15C          -55.0288069099       47.7722767617       16.4396749232  MEMB      151             0.0000000000
     18257       151  POPC      C11           -53.7243166294       49.3549005096       18.6350722240  MEMB      151             0.0000000000
     18258       151  POPC      H11A          -53.9731012414       49.5789296170       17.5757147470  MEMB      151             0.0000000000
     18259       151  POPC      H11B          -52.6351923680       49.5177031521       18.7821245116  MEMB      151             0.0000000000
     18260       151  POPC      P             -54.8413012765       51.4910104956       19.6307691516  MEMB      151             0.0000000000
     18261       151  POPC      O13           -53.7077537101       52.4725178249       19.6470494088  MEMB      151             0.0000000000
     18262       151  POPC      O14           -55.8388369582       51.6824356971       20.7229436881  MEMB      151             0.0000000000
     18263       151  POPC      O12           -54.3120335061       49.9937604356       19.6879350876  MEMB      151             0.0000000000
     18264       151  POPC      O11           -55.4559204788       51.5114633955       18.1419269616  MEMB      151             0.0000000000
     18265       151  POPC      C1            -56.2573081288       52.6051586859       17.6974934636  MEMB      151             0.0000000000
     18266       151  POPC      HA            -55.7124558113       53.5462326952       17.9251706535  MEMB      151             0.0000000000
     18267       151  POPC      HB            -57.2883920082       52.6401878506       18.1097552368  MEMB      151             0.0000000000
     18268       151  POPC      C2            -56.4739225572       52.6716081952       16.1584764031  MEMB      151             0.0000000000
     18269       151  POPC      HS            -57.3793385283       53.3138948312       16.1136393607  MEMB      151             0.0000000000
     18270       151  POPC      O21           -56.6320493019       51.4293206868       15.6416424780  MEMB      151             0.0000000000
     18271       151  POPC      C21           -57.0424219579       51.1874475433       14.3560673121  MEMB      151             0.0000000000
     18272       151  POPC      O22           -57.4017258991       52.0928743634       13.5821880576  MEMB      151             0.0000000000
     18273       151  POPC      C22           -56.8265831754       49.6929937421       14.0445563755  MEMB      151             0.0000000000
     18274       151  POPC      H2R           -57.4472041345       49.4691861566       13.1506542850  MEMB      151             0.0000000000
     18275       151  POPC      H2S           -57.2839928162       49.0817571913       14.8517039177  MEMB      151             0.0000000000
     18276       151  POPC      C3            -55.2285049170       53.3225204999       15.4262385562  MEMB      151             0.0000000000
     18277       151  POPC      HX            -55.1927264119       54.3831543699       15.7550191477  MEMB      151             0.0000000000
     18278       151  POPC      HY            -55.5073705639       53.2826694712       14.3515448170  MEMB      151             0.0000000000
     18279       151  POPC      O31           -54.0447594187       52.5603855254       15.7121820177  MEMB      151             0.0000000000
     18280       151  POPC      C31           -53.0343792602       52.8630655710       14.9017290401  MEMB      151             0.0000000000
     18281       151  POPC      O32           -53.1040904951       53.6323474944       13.9899970992  MEMB      151             0.0000000000
     18282       151  POPC      C32           -51.8166255925       52.0920217858       15.4331110667  MEMB      151             0.0000000000
     18283       151  POPC      H2X           -52.0291657351       51.1163065178       15.9200683659  MEMB      151             0.0000000000
     18284       151  POPC      H2Y           -51.2984550294       52.6740455028       16.2249878012  MEMB      151             0.0000000000
     18285       151  POPC      C23           -55.3558779060       49.5645126064       13.6527400396  MEMB      151             0.0000000000
     18286       151  POPC      H3R           -54.7776382782       49.6509324051       14.5974577694  MEMB      151             0.0000000000
     18287       151  POPC      H3S           -55.0126118170       50.4276202354       13.0432036850  MEMB      151             0.0000000000
     18288       151  POPC      C24           -54.9332123646       48.2861356212       13.1067416694  MEMB      151             0.0000000000
     18289       151  POPC      H4R           -54.8744263220       47.4520947963       13.8383436716  MEMB      151             0.0000000000
     18290       151  POPC      H4S           -53.8618429540       48.2801304587       12.8127136865  MEMB      151             0.0000000000
     18291       151  POPC      C25           -55.8190855687       47.8371935517       11.9424500416  MEMB      151             0.0000000000
     18292       151  POPC      H5R           -55.6728891538       48.4755169969       11.0449586082  MEMB      151             0.0000000000
     18293       151  POPC      H5S           -56.9074694499       47.7265139694       12.1360772240  MEMB      151             0.0000000000
     18294       151  POPC      C26           -55.3906698328       46.4465044226       11.3497487776  MEMB      151             0.0000000000
     18295       151  POPC      H6R           -56.1642280816       46.1808495517       10.5978476452  MEMB      151             0.0000000000
     18296       151  POPC      H6S           -55.5669159492       45.6866510646       12.1408757133  MEMB      151             0.0000000000
     18297       151  POPC      C27           -54.0710079558       46.3495748355       10.6523324911  MEMB      151             0.0000000000
     18298       151  POPC      H7R           -53.2333626523       46.2104470186       11.3687927994  MEMB      151             0.0000000000
     18299       151  POPC      H7S           -53.9330922798       47.3163603766       10.1225911268  MEMB      151             0.0000000000
     18300       151  POPC      C28           -53.8845528346       45.3108765465        9.4837847079  MEMB      151             0.0000000000
     18301       151  POPC      H8R           -54.0744599607       44.2984822998        9.9000942977  MEMB      151             0.0000000000
     18302       151  POPC      H8S           -52.8712755574       45.3867421037        9.0345241364  MEMB      151             0.0000000000
     18303       151  POPC      C29           -54.8918793510       45.5208346951        8.3406968226  MEMB      151             0.0000000000
     18304       151  POPC      H91           -55.9104931484       45.1829485754        8.5820648627  MEMB      151             0.0000000000
     18305       151  POPC      C210          -54.5390182815       45.8554377649        7.0882466582  MEMB      151             0.0000000000
     18306       151  POPC      H101          -55.3138288188       45.7978712995        6.3095590028  MEMB      151             0.0000000000
     18307       151  POPC      C211          -53.1447008229       46.0712800547        6.4237205973  MEMB      151             0.0000000000
     18308       151  POPC      H11R          -53.1768145981       45.3906422628        5.5462121621  MEMB      151             0.0000000000
     18309       151  POPC      H11S          -52.3982773049       45.5150188201        7.0301412258  MEMB      151             0.0000000000
     18310       151  POPC      C212          -52.6987049734       47.5223957940        6.0250734335  MEMB      151             0.0000000000
     18311       151  POPC      H12R          -51.6385516896       47.5107884580        5.6930169719  MEMB      151             0.0000000000
     18312       151  POPC      H12S          -52.7852478713       48.1684241181        6.9247836711  MEMB      151             0.0000000000
     18313       151  POPC      C213          -53.6127712993       48.2514179704        4.9844226934  MEMB      151             0.0000000000
     18314       151  POPC      H13R          -53.4247020463       49.3439115702        5.0579663600  MEMB      151             0.0000000000
     18315       151  POPC      H13S          -54.6989817138       48.0746147668        5.1367663229  MEMB      151             0.0000000000
     18316       151  POPC      C214          -53.4185658351       47.8446599474        3.4135452120  MEMB      151             0.0000000000
     18317       151  POPC      H14R          -52.3305171735       47.7012577196        3.2406092307  MEMB      151             0.0000000000
     18318       151  POPC      H14S          -53.7090491167       48.7394515369        2.8225386161  MEMB      151             0.0000000000
     18319       151  POPC      C215          -54.1607517082       46.5703189468        3.0165193312  MEMB      151             0.0000000000
     18320       151  POPC      H15R          -55.2164036172       46.7328118055        3.3223237075  MEMB      151             0.0000000000
     18321       151  POPC      H15S          -53.8710752799       45.6398681176        3.5500641534  MEMB      151             0.0000000000
     18322       151  POPC      C216          -54.2125829932       46.4029288404        1.5247707649  MEMB      151             0.0000000000
     18323       151  POPC      H16R          -53.1604679168       46.3081190777        1.1806982635  MEMB      151             0.0000000000
     18324       151  POPC      H16S          -54.6302265783       47.3341598274        1.0857913542  MEMB      151             0.0000000000
     18325       151  POPC      C217          -54.9209575255       45.1364336745        1.0228351081  MEMB      151             0.0000000000
     18326       151  POPC      H17R          -55.8316007238       44.8836424775        1.6069120938  MEMB      151             0.0000000000
     18327       151  POPC      H17S          -54.1852736168       44.3039709382        1.0130267872  MEMB      151             0.0000000000
     18328       151  POPC      C218          -55.2810758169       45.4222305158       -0.4037413550  MEMB      151             0.0000000000
     18329       151  POPC      H18R          -56.1821974595       46.0692150349       -0.4646712292  MEMB      151             0.0000000000
     18330       151  POPC      H18S          -55.6313577254       44.5537848933       -1.0015928323  MEMB      151             0.0000000000
     18331       151  POPC      H18T          -54.4845733125       45.8959295045       -1.0165335513  MEMB      151             0.0000000000
     18332       151  POPC      C33           -50.8762793439       51.7725396228       14.2787430244  MEMB      151             0.0000000000
     18333       151  POPC      H3X           -49.8833455434       51.6381078936       14.7586716439  MEMB      151             0.0000000000
     18334       151  POPC      H3Y           -50.7959621437       52.6069038387       13.5495611126  MEMB      151             0.0000000000
     18335       151  POPC      C34           -50.9592216040       50.4550001208       13.4251504464  MEMB      151             0.0000000000
     18336       151  POPC      H4X           -51.4347872916       49.6938304759       14.0799629609  MEMB      151             0.0000000000
     18337       151  POPC      H4Y           -49.9260940842       50.2711222240       13.0602429580  MEMB      151             0.0000000000
     18338       151  POPC      C35           -51.8624374675       50.6260031049       12.1272924296  MEMB      151             0.0000000000
     18339       151  POPC      H5X           -52.9115400158       50.7845113565       12.4568068873  MEMB      151             0.0000000000
     18340       151  POPC      H5Y           -51.7912940334       49.7753685013       11.4161802181  MEMB      151             0.0000000000
     18341       151  POPC      C36           -51.5200305206       51.8924473857       11.3355382235  MEMB      151             0.0000000000
     18342       151  POPC      H6X           -50.4264241225       51.9065530515       11.1402253737  MEMB      151             0.0000000000
     18343       151  POPC      H6Y           -51.7490173730       52.7470418944       12.0075162417  MEMB      151             0.0000000000
     18344       151  POPC      C37           -52.1660437707       52.1602089515        9.9914180118  MEMB      151             0.0000000000
     18345       151  POPC      H7X           -52.0165326747       51.4354246860        9.1627711177  MEMB      151             0.0000000000
     18346       151  POPC      H7Y           -51.8214518679       53.1596696270        9.6498688575  MEMB      151             0.0000000000
     18347       151  POPC      C38           -53.7134929088       52.1404983252        9.9976432898  MEMB      151             0.0000000000
     18348       151  POPC      H8X           -54.0776758346       52.9260073818       10.6938233309  MEMB      151             0.0000000000
     18349       151  POPC      H8Y           -53.8881117412       51.1551141692       10.4801857583  MEMB      151             0.0000000000
     18350       151  POPC      C39           -54.1935232522       52.2958792135        8.5687674469  MEMB      151             0.0000000000
     18351       151  POPC      H9X           -53.7171307491       51.5757111717        7.8696752015  MEMB      151             0.0000000000
     18352       151  POPC      H9Y           -53.8323633060       53.3180287330        8.3256728501  MEMB      151             0.0000000000
     18353       151  POPC      C310          -55.6965423984       52.0951740710        8.4206043046  MEMB      151             0.0000000000
     18354       151  POPC      H10X          -56.2824398823       52.7988741319        9.0497718619  MEMB      151             0.0000000000
     18355       151  POPC      H10Y          -55.8348162664       51.0841259226        8.8599023987  MEMB      151             0.0000000000
     18356       151  POPC      C311          -56.0840451784       52.2973418897        6.9704180172  MEMB      151             0.0000000000
     18357       151  POPC      H11X          -55.2900143868       51.9243725688        6.2887066862  MEMB      151             0.0000000000
     18358       151  POPC      H11Y          -56.2573756956       53.3662365000        6.7219385715  MEMB      151             0.0000000000
     18359       151  POPC      C312          -57.3606091316       51.4884545032        6.5909773637  MEMB      151             0.0000000000
     18360       151  POPC      H12X          -58.2343115678       51.8395681416        7.1806247770  MEMB      151             0.0000000000
     18361       151  POPC      H12Y          -57.2387461839       50.4873685250        7.0571289070  MEMB      151             0.0000000000
     18362       151  POPC      C313          -57.6454192875       51.5070776301        5.0850592310  MEMB      151             0.0000000000
     18363       151  POPC      H13X          -57.7158756253       52.5659503216        4.7562035798  MEMB      151             0.0000000000
     18364       151  POPC      H13Y          -58.6048340595       50.9650694282        4.9433838300  MEMB      151             0.0000000000
     18365       151  POPC      C314          -56.6074234418       50.8083309355        4.1271813613  MEMB      151             0.0000000000
     18366       151  POPC      H14X          -56.3548270488       49.7708673868        4.4340776683  MEMB      151             0.0000000000
     18367       151  POPC      H14Y          -55.6821894111       51.4223875370        4.1617885814  MEMB      151             0.0000000000
     18368       151  POPC      C315          -57.2884596290       50.6122128804        2.7097676415  MEMB      151             0.0000000000
     18369       151  POPC      H15X          -57.8090307042       51.5767168723        2.5279483033  MEMB      151             0.0000000000
     18370       151  POPC      H15Y          -58.1021140828       49.8582461748        2.7715844642  MEMB      151             0.0000000000
     18371       151  POPC      C316          -56.3620583318       50.2754883784        1.6404404573  MEMB      151             0.0000000000
     18372       151  POPC      H16X          -56.9806978085       50.1509240188        0.7260621887  MEMB      151             0.0000000000
     18373       151  POPC      H16Y          -55.7581848630       49.3677695170        1.8542271197  MEMB      151             0.0000000000
     18374       151  POPC      H16Z          -55.5889429537       51.0544453692        1.4676999272  MEMB      151             0.0000000000
     18375       152  POPC      N             -50.4169691547       54.9490955797       20.4517504752  MEMB      152             0.0000000000
     18376       152  POPC      C12           -50.4641144123       55.1736981844       18.9034379453  MEMB      152             0.0000000000
     18377       152  POPC      H12A          -51.4917331033       55.2146176083       18.5737025882  MEMB      152             0.0000000000
     18378       152  POPC      H12B          -49.9829945539       54.3460165661       18.4035712191  MEMB      152             0.0000000000
     18379       152  POPC      C13           -51.1974710793       56.0843104482       21.1391839065  MEMB      152             0.0000000000
     18380       152  POPC      H13A          -52.2372977057       56.1171526260       20.8492150508  MEMB      152             0.0000000000
     18381       152  POPC      H13B          -51.1244588960       55.8032202576       22.1794037946  MEMB      152             0.0000000000
     18382       152  POPC      H13C          -50.7589482355       57.0618906262       21.0034100310  MEMB      152             0.0000000000
     18383       152  POPC      C14           -51.0529209250       53.6239180003       20.6907549835  MEMB      152             0.0000000000
     18384       152  POPC      H14A          -50.3515146633       52.8263682945       20.4949393465  MEMB      152             0.0000000000
     18385       152  POPC      H14B          -51.4559216937       53.5965150068       21.6923735468  MEMB      152             0.0000000000
     18386       152  POPC      H14C          -51.8274141297       53.4258670385       19.9645758239  MEMB      152             0.0000000000
     18387       152  POPC      C15           -48.9178586517       54.9507490234       20.8627242363  MEMB      152             0.0000000000
     18388       152  POPC      H15A          -48.4090469495       55.8575192310       20.5706993115  MEMB      152             0.0000000000
     18389       152  POPC      H15B          -48.4506587994       54.0623202626       20.4642035996  MEMB      152             0.0000000000
     18390       152  POPC      H15C          -48.9655053022       54.9378625088       21.9415956284  MEMB      152             0.0000000000
     18391       152  POPC      C11           -49.8613693248       56.4611097659       18.3490483507  MEMB      152             0.0000000000
     18392       152  POPC      H11A          -50.5629429009       57.2209208525       18.7550072296  MEMB      152             0.0000000000
     18393       152  POPC      H11B          -50.0157743469       56.3141428045       17.2586902742  MEMB      152             0.0000000000
     18394       152  POPC      P             -47.4036620532       56.0935563617       17.7518741612  MEMB      152             0.0000000000
     18395       152  POPC      O13           -47.7916771978       54.6968892359       17.5673785340  MEMB      152             0.0000000000
     18396       152  POPC      O14           -46.0287159653       56.3803532269       18.1709166918  MEMB      152             0.0000000000
     18397       152  POPC      O12           -48.5250144516       56.7413724959       18.7264286103  MEMB      152             0.0000000000
     18398       152  POPC      O11           -47.6390285798       56.8017447765       16.3865021449  MEMB      152             0.0000000000
     18399       152  POPC      C1            -47.5794039138       58.2071672724       16.1530780260  MEMB      152             0.0000000000
     18400       152  POPC      HA            -46.5182847500       58.3419023248       15.8527556696  MEMB      152             0.0000000000
     18401       152  POPC      HB            -47.6868434680       58.8459272341       17.0557205060  MEMB      152             0.0000000000
     18402       152  POPC      C2            -48.5732374000       58.5174432842       15.0866478086  MEMB      152             0.0000000000
     18403       152  POPC      HS            -48.7495751711       59.5975631932       14.8954219847  MEMB      152             0.0000000000
     18404       152  POPC      O21           -49.8064759287       58.0254080950       15.5651389912  MEMB      152             0.0000000000
     18405       152  POPC      C21           -50.8583024418       58.3885632210       14.9075674719  MEMB      152             0.0000000000
     18406       152  POPC      O22           -50.9669786904       59.3778480059       14.2176691595  MEMB      152             0.0000000000
     18407       152  POPC      C22           -52.1031141343       57.5143225962       15.2095320181  MEMB      152             0.0000000000
     18408       152  POPC      H2R           -53.0129681586       58.0413890254       14.8508013779  MEMB      152             0.0000000000
     18409       152  POPC      H2S           -52.1010822173       57.3638858931       16.3102979358  MEMB      152             0.0000000000
     18410       152  POPC      C3            -48.2304569781       57.9344754705       13.6573539703  MEMB      152             0.0000000000
     18411       152  POPC      HX            -47.2602484515       58.3192186161       13.2765793112  MEMB      152             0.0000000000
     18412       152  POPC      HY            -49.0385994506       58.3752567670       13.0353097027  MEMB      152             0.0000000000
     18413       152  POPC      O31           -48.2771477368       56.4638444016       13.7060295726  MEMB      152             0.0000000000
     18414       152  POPC      C31           -48.4351293352       55.8910721633       12.5097727005  MEMB      152             0.0000000000
     18415       152  POPC      O32           -48.4724452667       56.4306780277       11.4505861593  MEMB      152             0.0000000000
     18416       152  POPC      C32           -48.6401379483       54.3274209469       12.7559148074  MEMB      152             0.0000000000
     18417       152  POPC      H2X           -49.5851399172       54.0345835186       12.2504063159  MEMB      152             0.0000000000
     18418       152  POPC      H2Y           -48.6316794877       54.1474736488       13.8522120992  MEMB      152             0.0000000000
     18419       152  POPC      C23           -51.7042704031       56.1147864912       14.6936651293  MEMB      152             0.0000000000
     18420       152  POPC      H3R           -50.8259506202       55.7375612602       15.2598598959  MEMB      152             0.0000000000
     18421       152  POPC      H3S           -51.4479237679       56.0818175227       13.6131468285  MEMB      152             0.0000000000
     18422       152  POPC      C24           -52.8479804157       55.1122746949       14.9910352213  MEMB      152             0.0000000000
     18423       152  POPC      H4R           -53.1477479076       55.3151089801       16.0414250441  MEMB      152             0.0000000000
     18424       152  POPC      H4S           -52.4351146160       54.0810700397       14.9691339179  MEMB      152             0.0000000000
     18425       152  POPC      C25           -53.9875816748       55.1308107458       13.9580872446  MEMB      152             0.0000000000
     18426       152  POPC      H5R           -54.4275387785       56.1506979997       13.9823480247  MEMB      152             0.0000000000
     18427       152  POPC      H5S           -54.7562256229       54.4807229678       14.4280806090  MEMB      152             0.0000000000
     18428       152  POPC      C26           -53.7183869683       54.6413033724       12.4680591008  MEMB      152             0.0000000000
     18429       152  POPC      H6R           -53.3131191296       53.6277307778       12.6748184936  MEMB      152             0.0000000000
     18430       152  POPC      H6S           -52.9477082272       55.2967274442       12.0089351489  MEMB      152             0.0000000000
     18431       152  POPC      C27           -55.0209808152       54.5407682489       11.7525987908  MEMB      152             0.0000000000
     18432       152  POPC      H7R           -55.4200858133       55.5725396478       11.8549916111  MEMB      152             0.0000000000
     18433       152  POPC      H7S           -55.7542212003       53.8715588304       12.2514358460  MEMB      152             0.0000000000
     18434       152  POPC      C28           -54.8428248128       54.3084935777       10.2580077549  MEMB      152             0.0000000000
     18435       152  POPC      H8R           -55.8122126117       54.3126004386        9.7152449118  MEMB      152             0.0000000000
     18436       152  POPC      H8S           -54.5049770529       53.2527957982       10.1826284753  MEMB      152             0.0000000000
     18437       152  POPC      C29           -53.9389266086       55.1791545050        9.3989636718  MEMB      152             0.0000000000
     18438       152  POPC      H91           -54.5124960208       55.9935697010        8.9323314809  MEMB      152             0.0000000000
     18439       152  POPC      C210          -52.6324263110       54.9492894716        9.0649081924  MEMB      152             0.0000000000
     18440       152  POPC      H101          -52.1079251433       55.6665156207        8.4164602958  MEMB      152             0.0000000000
     18441       152  POPC      C211          -51.7675721354       53.7980719274        9.4729618019  MEMB      152             0.0000000000
     18442       152  POPC      H11R          -52.3560008638       53.1708589276       10.1762943048  MEMB      152             0.0000000000
     18443       152  POPC      H11S          -50.7465288649       54.1510660479        9.7321654698  MEMB      152             0.0000000000
     18444       152  POPC      C212          -51.4246509882       52.8347427085        8.2579345742  MEMB      152             0.0000000000
     18445       152  POPC      H12R          -52.2706537738       52.1462343392        8.0468505348  MEMB      152             0.0000000000
     18446       152  POPC      H12S          -50.6406536461       52.1517897074        8.6493991228  MEMB      152             0.0000000000
     18447       152  POPC      C213          -50.8827434199       53.4622434872        6.8957993859  MEMB      152             0.0000000000
     18448       152  POPC      H13R          -49.8075984723       53.7330198785        6.9669660088  MEMB      152             0.0000000000
     18449       152  POPC      H13S          -51.4797610144       54.3612464574        6.6318210231  MEMB      152             0.0000000000
     18450       152  POPC      C214          -50.8661210353       52.5015131594        5.6935693291  MEMB      152             0.0000000000
     18451       152  POPC      H14R          -51.8639420628       52.0143577696        5.7303659809  MEMB      152             0.0000000000
     18452       152  POPC      H14S          -50.1441635057       51.6635254325        5.7978504235  MEMB      152             0.0000000000
     18453       152  POPC      C215          -50.6659826963       53.1297000132        4.3336670784  MEMB      152             0.0000000000
     18454       152  POPC      H15R          -50.9199228704       52.4062153761        3.5296742462  MEMB      152             0.0000000000
     18455       152  POPC      H15S          -49.5810675930       53.3382580185        4.2162617055  MEMB      152             0.0000000000
     18456       152  POPC      C216          -51.3516708279       54.4863261340        4.0318200128  MEMB      152             0.0000000000
     18457       152  POPC      H16R          -50.7648476477       55.3295987578        4.4547280091  MEMB      152             0.0000000000
     18458       152  POPC      H16S          -52.4117902631       54.4526816229        4.3624796045  MEMB      152             0.0000000000
     18459       152  POPC      C217          -51.4126918451       54.7087187407        2.5055954945  MEMB      152             0.0000000000
     18460       152  POPC      H17R          -51.9939903398       55.6336701900        2.3034121329  MEMB      152             0.0000000000
     18461       152  POPC      H17S          -51.9354487934       53.7836536864        2.1810935854  MEMB      152             0.0000000000
     18462       152  POPC      C218          -50.1056174499       54.5765972102        1.6915963754  MEMB      152             0.0000000000
     18463       152  POPC      H18R          -49.4935365460       53.6878777277        1.9559003455  MEMB      152             0.0000000000
     18464       152  POPC      H18S          -49.4604643360       55.4711937599        1.8249968015  MEMB      152             0.0000000000
     18465       152  POPC      H18T          -50.2833863127       54.5442851680        0.5953875695  MEMB      152             0.0000000000
     18466       152  POPC      C33           -47.4444936924       53.5546050447       12.1334912012  MEMB      152             0.0000000000
     18467       152  POPC      H3X           -47.0735208980       52.6747687258       12.7014597081  MEMB      152             0.0000000000
     18468       152  POPC      H3Y           -46.5435717235       54.1938962188       12.0153068649  MEMB      152             0.0000000000
     18469       152  POPC      C34           -47.8040521601       53.1481286291       10.6339405828  MEMB      152             0.0000000000
     18470       152  POPC      H4X           -48.3010804748       53.9690896308       10.0742028061  MEMB      152             0.0000000000
     18471       152  POPC      H4Y           -48.4974589496       52.2822138524       10.6947648436  MEMB      152             0.0000000000
     18472       152  POPC      C35           -46.4857232613       52.8383490308        9.7652270760  MEMB      152             0.0000000000
     18473       152  POPC      H5X           -46.3978727345       51.7348184958        9.8591593140  MEMB      152             0.0000000000
     18474       152  POPC      H5Y           -45.5682734268       53.1898333980       10.2839418536  MEMB      152             0.0000000000
     18475       152  POPC      C36           -46.5731235964       53.2378435883        8.2910683539  MEMB      152             0.0000000000
     18476       152  POPC      H6X           -47.3644665990       52.6692000064        7.7574559878  MEMB      152             0.0000000000
     18477       152  POPC      H6Y           -45.6054962793       52.8271105113        7.9314619784  MEMB      152             0.0000000000
     18478       152  POPC      C37           -46.7632847082       54.7580250220        8.0051253978  MEMB      152             0.0000000000
     18479       152  POPC      H7X           -45.9625928081       55.3056883014        8.5466776759  MEMB      152             0.0000000000
     18480       152  POPC      H7Y           -47.7022239425       55.1450931134        8.4555616201  MEMB      152             0.0000000000
     18481       152  POPC      C38           -46.8320106356       55.0687984935        6.4509675156  MEMB      152             0.0000000000
     18482       152  POPC      H8X           -47.5906729259       54.4343590493        5.9447667022  MEMB      152             0.0000000000
     18483       152  POPC      H8Y           -45.9323623286       54.7934329306        5.8600970818  MEMB      152             0.0000000000
     18484       152  POPC      C39           -47.0012903131       56.5640192668        6.1512720993  MEMB      152             0.0000000000
     18485       152  POPC      H9X           -46.7915172275       56.5728029726        5.0602919098  MEMB      152             0.0000000000
     18486       152  POPC      H9Y           -46.2643519954       57.1937187078        6.6941547484  MEMB      152             0.0000000000
     18487       152  POPC      C310          -48.5109586738       56.9806766469        6.2424649165  MEMB      152             0.0000000000
     18488       152  POPC      H10X          -48.8957696661       56.6553368887        7.2326145863  MEMB      152             0.0000000000
     18489       152  POPC      H10Y          -49.0746245036       56.3787691263        5.4979455233  MEMB      152             0.0000000000
     18490       152  POPC      C311          -48.6949925713       58.4818165105        6.0242636307  MEMB      152             0.0000000000
     18491       152  POPC      H11X          -48.1890982347       59.1493329149        6.7542049993  MEMB      152             0.0000000000
     18492       152  POPC      H11Y          -49.7926897843       58.6323047062        6.1063316440  MEMB      152             0.0000000000
     18493       152  POPC      C312          -48.1603736810       59.0121155643        4.6736132669  MEMB      152             0.0000000000
     18494       152  POPC      H12X          -47.0533389293       59.1021596414        4.6998212203  MEMB      152             0.0000000000
     18495       152  POPC      H12Y          -48.4836883299       60.0743840055        4.7106815599  MEMB      152             0.0000000000
     18496       152  POPC      C313          -48.5864726820       58.3093535646        3.4368488002  MEMB      152             0.0000000000
     18497       152  POPC      H13X          -49.6902150575       58.4360397499        3.4318948206  MEMB      152             0.0000000000
     18498       152  POPC      H13Y          -48.3170113625       57.2581469690        3.6749162203  MEMB      152             0.0000000000
     18499       152  POPC      C314          -47.9426033045       58.7767803238        2.1348838604  MEMB      152             0.0000000000
     18500       152  POPC      H14X          -46.8400828826       58.7019119051        2.2496191813  MEMB      152             0.0000000000
     18501       152  POPC      H14Y          -48.1546594768       59.8612310060        2.0194707149  MEMB      152             0.0000000000
     18502       152  POPC      C315          -48.4025858627       58.0284401727        0.8834939751  MEMB      152             0.0000000000
     18503       152  POPC      H15X          -49.5006906132       58.1965238761        0.8681589275  MEMB      152             0.0000000000
     18504       152  POPC      H15Y          -48.1384641425       56.9869765278        1.1661826962  MEMB      152             0.0000000000
     18505       152  POPC      C316          -47.6164553235       58.4976940981       -0.2995454937  MEMB      152             0.0000000000
     18506       152  POPC      H16X          -46.5420713733       58.4723628770       -0.0178034884  MEMB      152             0.0000000000
     18507       152  POPC      H16Y          -47.7803201819       59.5873594212       -0.4413185891  MEMB      152             0.0000000000
     18508       152  POPC      H16Z          -47.7455543689       58.0488834123       -1.3076247038  MEMB      152             0.0000000000
     18509       153  POPC      N              56.1270395249      -49.8606028637       20.8014979332  MEMB      153             0.0000000000
     18510       153  POPC      C12            57.6178097502      -49.8769746805       20.5424469822  MEMB      153             0.0000000000
     18511       153  POPC      H12A           58.0350337331      -50.6082574547       21.2188711934  MEMB      153             0.0000000000
     18512       153  POPC      H12B           57.9380251945      -48.9043501363       20.8857595484  MEMB      153             0.0000000000
     18513       153  POPC      C13            55.7672023268      -49.8874435167       22.2824527726  MEMB      153             0.0000000000
     18514       153  POPC      H13A           56.1369291216      -50.7849752723       22.7558856259  MEMB      153             0.0000000000
     18515       153  POPC      H13B           56.1941886070      -49.0797790260       22.8584396363  MEMB      153             0.0000000000
     18516       153  POPC      H13C           54.6990503757      -49.7718759564       22.3924319361  MEMB      153             0.0000000000
     18517       153  POPC      C14            55.5387808793      -48.6018087484       20.1285559097  MEMB      153             0.0000000000
     18518       153  POPC      H14A           55.6690922138      -47.7107242976       20.7246995997  MEMB      153             0.0000000000
     18519       153  POPC      H14B           56.0489844877      -48.5811582503       19.1768910817  MEMB      153             0.0000000000
     18520       153  POPC      H14C           54.5058427723      -48.7875838463       19.8737491448  MEMB      153             0.0000000000
     18521       153  POPC      C15            55.5122032569      -51.1022948957       20.1259278048  MEMB      153             0.0000000000
     18522       153  POPC      H15A           56.0677680386      -51.9544683865       20.4886234766  MEMB      153             0.0000000000
     18523       153  POPC      H15B           55.7679043031      -51.1183296607       19.0767567179  MEMB      153             0.0000000000
     18524       153  POPC      H15C           54.4502150612      -51.2490062737       20.2565294652  MEMB      153             0.0000000000
     18525       153  POPC      C11            58.0408946804      -50.1243198644       19.1108802270  MEMB      153             0.0000000000
     18526       153  POPC      H11A           59.1508611192      -50.0795050927       19.0939397139  MEMB      153             0.0000000000
     18527       153  POPC      H11B           57.7415710560      -49.2959802719       18.4336949885  MEMB      153             0.0000000000
     18528       153  POPC      P              58.2369159839      -51.7311455286       17.1460834728  MEMB      153             0.0000000000
     18529       153  POPC      O13            57.5482319398      -52.9259967651       16.5929239730  MEMB      153             0.0000000000
     18530       153  POPC      O14            59.7535017840      -51.7485685296       17.2976489802  MEMB      153             0.0000000000
     18531       153  POPC      O12            57.6964308788      -51.3860251456       18.5791769009  MEMB      153             0.0000000000
     18532       153  POPC      O11            57.7039172971      -50.4497715662       16.3924050457  MEMB      153             0.0000000000
     18533       153  POPC      C1             56.2728087723      -50.3058468080       16.2414010317  MEMB      153             0.0000000000
     18534       153  POPC      HA             55.9043951367      -49.6933833303       17.0919776442  MEMB      153             0.0000000000
     18535       153  POPC      HB             55.7698576233      -51.2917958987       16.3376586129  MEMB      153             0.0000000000
     18536       153  POPC      C2             55.9970306360      -49.7766117807       14.8812970131  MEMB      153             0.0000000000
     18537       153  POPC      HS             54.9911164154      -50.0785420463       14.5189495215  MEMB      153             0.0000000000
     18538       153  POPC      O21            57.0044197044      -50.2918424871       13.9209809079  MEMB      153             0.0000000000
     18539       153  POPC      C21            56.8312144262      -51.4990114233       13.4433902507  MEMB      153             0.0000000000
     18540       153  POPC      O22            55.8128429360      -52.1907433664       13.6476810543  MEMB      153             0.0000000000
     18541       153  POPC      C22            58.0870367468      -52.0434552084       12.6319355829  MEMB      153             0.0000000000
     18542       153  POPC      H2R            58.8840087800      -52.0193260377       13.4056113891  MEMB      153             0.0000000000
     18543       153  POPC      H2S            58.3508615727      -51.3242155714       11.8273165751  MEMB      153             0.0000000000
     18544       153  POPC      C3             56.1341610978      -48.2002648168       14.7868617051  MEMB      153             0.0000000000
     18545       153  POPC      HX             57.0754117118      -48.0110264324       15.3459298845  MEMB      153             0.0000000000
     18546       153  POPC      HY             55.2915554177      -47.8011107333       15.3910244845  MEMB      153             0.0000000000
     18547       153  POPC      O31            56.1166460967      -47.6637279415       13.4858846148  MEMB      153             0.0000000000
     18548       153  POPC      C31            57.2460636083      -46.9242537224       13.1596985282  MEMB      153             0.0000000000
     18549       153  POPC      O32            58.1821219730      -46.6723266705       13.8862891236  MEMB      153             0.0000000000
     18550       153  POPC      C32            57.1537410836      -46.4748840719       11.7028439134  MEMB      153             0.0000000000
     18551       153  POPC      H2X            57.2267558970      -45.3678533778       11.6439100359  MEMB      153             0.0000000000
     18552       153  POPC      H2Y            56.1348045884      -46.7037731555       11.3237666248  MEMB      153             0.0000000000
     18553       153  POPC      C23            58.0398191430      -53.3681517672       12.0611502169  MEMB      153             0.0000000000
     18554       153  POPC      H3R            57.4932886561      -54.0842705705       12.7113803805  MEMB      153             0.0000000000
     18555       153  POPC      H3S            59.0622653435      -53.7879726984       11.9485671021  MEMB      153             0.0000000000
     18556       153  POPC      C24            57.1519508730      -53.3784734428       10.7658143718  MEMB      153             0.0000000000
     18557       153  POPC      H4R            56.5808212562      -52.4255717266       10.7553154393  MEMB      153             0.0000000000
     18558       153  POPC      H4S            56.4041148466      -54.1992495061       10.7285438175  MEMB      153             0.0000000000
     18559       153  POPC      C25            58.0251021781      -53.3676347975        9.5018244215  MEMB      153             0.0000000000
     18560       153  POPC      H5R            58.6933859050      -52.4827468777        9.4333317289  MEMB      153             0.0000000000
     18561       153  POPC      H5S            57.3730764408      -53.1262551587        8.6352679274  MEMB      153             0.0000000000
     18562       153  POPC      C26            58.8862020275      -54.6100359951        9.3441923806  MEMB      153             0.0000000000
     18563       153  POPC      H6R            58.3386911751      -55.5146143446        9.6852063310  MEMB      153             0.0000000000
     18564       153  POPC      H6S            59.6957749917      -54.5137340014       10.0989363084  MEMB      153             0.0000000000
     18565       153  POPC      C27            59.3612591540      -54.8314399024        7.8586060490  MEMB      153             0.0000000000
     18566       153  POPC      H7R            58.5140570973      -54.7850016251        7.1413799799  MEMB      153             0.0000000000
     18567       153  POPC      H7S            59.7321681395      -55.8733099041        7.7525188055  MEMB      153             0.0000000000
     18568       153  POPC      C28            60.4552759383      -53.8775707929        7.3642463435  MEMB      153             0.0000000000
     18569       153  POPC      H8R            61.1808630366      -53.7296664200        8.1924786899  MEMB      153             0.0000000000
     18570       153  POPC      H8S            59.9776902918      -52.8815991308        7.2447759280  MEMB      153             0.0000000000
     18571       153  POPC      C29            61.0284884422      -54.3020164950        6.0888129023  MEMB      153             0.0000000000
     18572       153  POPC      H91            61.8506517188      -55.0188239150        6.2310626410  MEMB      153             0.0000000000
     18573       153  POPC      C210           60.4794791254      -54.2007307225        4.8914370866  MEMB      153             0.0000000000
     18574       153  POPC      H101           60.9085855711      -54.5672607872        3.9472318123  MEMB      153             0.0000000000
     18575       153  POPC      C211           59.0929471081      -53.6676253364        4.5588476366  MEMB      153             0.0000000000
     18576       153  POPC      H11R           59.1596364341      -52.7430929673        3.9463822894  MEMB      153             0.0000000000
     18577       153  POPC      H11S           58.7007027686      -53.2406289463        5.5065498097  MEMB      153             0.0000000000
     18578       153  POPC      C212           58.1086180592      -54.7962635674        4.0121260368  MEMB      153             0.0000000000
     18579       153  POPC      H12R           58.0007644869      -55.6257385841        4.7433308352  MEMB      153             0.0000000000
     18580       153  POPC      H12S           58.3253116062      -55.3558141924        3.0771031007  MEMB      153             0.0000000000
     18581       153  POPC      C213           56.7047454047      -54.2884064772        3.6502763252  MEMB      153             0.0000000000
     18582       153  POPC      H13R           56.3926264731      -53.5364130898        4.4061917886  MEMB      153             0.0000000000
     18583       153  POPC      H13S           55.9164115206      -55.0667141087        3.5660878150  MEMB      153             0.0000000000
     18584       153  POPC      C214           56.5404296370      -53.6580939437        2.2165380930  MEMB      153             0.0000000000
     18585       153  POPC      H14R           57.3723262181      -52.9658608588        1.9653756119  MEMB      153             0.0000000000
     18586       153  POPC      H14S           55.5828745058      -53.1161880182        2.0624375038  MEMB      153             0.0000000000
     18587       153  POPC      C215           56.4333412621      -54.7744195617        1.1376411897  MEMB      153             0.0000000000
     18588       153  POPC      H15R           55.6698088789      -55.5242175068        1.4362103204  MEMB      153             0.0000000000
     18589       153  POPC      H15S           57.4050787899      -55.3103473402        1.1908238557  MEMB      153             0.0000000000
     18590       153  POPC      C216           56.2312023266      -54.1916637758       -0.2523118011  MEMB      153             0.0000000000
     18591       153  POPC      H16R           55.3471193991      -53.5351315659       -0.1050590151  MEMB      153             0.0000000000
     18592       153  POPC      H16S           55.8745515732      -54.9547081029       -0.9768005984  MEMB      153             0.0000000000
     18593       153  POPC      C217           57.3051521533      -53.2789076300       -0.8431429499  MEMB      153             0.0000000000
     18594       153  POPC      H17R           57.2316945104      -52.2695543735       -0.3847430108  MEMB      153             0.0000000000
     18595       153  POPC      H17S           57.0902803529      -53.2608471761       -1.9330174423  MEMB      153             0.0000000000
     18596       153  POPC      C218           58.6906867010      -53.7925551626       -0.5638380309  MEMB      153             0.0000000000
     18597       153  POPC      H18R           58.8323756062      -54.8772813293       -0.7577822087  MEMB      153             0.0000000000
     18598       153  POPC      H18S           59.0215555943      -53.5118615459        0.4589303255  MEMB      153             0.0000000000
     18599       153  POPC      H18T           59.3517669315      -53.2394153476       -1.2647895963  MEMB      153             0.0000000000
     18600       153  POPC      C33            58.2921067616      -47.0866090938       10.9345829010  MEMB      153             0.0000000000
     18601       153  POPC      H3X            59.2462637795      -46.6142240710       11.2520064572  MEMB      153             0.0000000000
     18602       153  POPC      H3Y            58.2392415734      -46.6852091451        9.8999791421  MEMB      153             0.0000000000
     18603       153  POPC      C34            58.5100180445      -48.5939495617       10.8761249274  MEMB      153             0.0000000000
     18604       153  POPC      H4X            58.4374644110      -48.9706415395       11.9187945408  MEMB      153             0.0000000000
     18605       153  POPC      H4Y            59.5723131715      -48.8081010418       10.6311984187  MEMB      153             0.0000000000
     18606       153  POPC      C35            57.5422416545      -49.3034107111        9.9235655064  MEMB      153             0.0000000000
     18607       153  POPC      H5X            56.5602046960      -48.8673642473       10.2060331158  MEMB      153             0.0000000000
     18608       153  POPC      H5Y            57.6310693136      -50.3773994182       10.1937122336  MEMB      153             0.0000000000
     18609       153  POPC      C36            57.7581562138      -48.9742234104        8.4433336420  MEMB      153             0.0000000000
     18610       153  POPC      H6X            58.8030006479      -49.2226103545        8.1588597124  MEMB      153             0.0000000000
     18611       153  POPC      H6Y            57.6517162075      -47.8759342826        8.3139030791  MEMB      153             0.0000000000
     18612       153  POPC      C37            56.6616186706      -49.6186274769        7.5062983205  MEMB      153             0.0000000000
     18613       153  POPC      H7X            55.7624655272      -48.9967251629        7.7039901558  MEMB      153             0.0000000000
     18614       153  POPC      H7Y            56.4023767804      -50.6290859961        7.8885124273  MEMB      153             0.0000000000
     18615       153  POPC      C38            57.1828857935      -49.5854343037        6.1140778276  MEMB      153             0.0000000000
     18616       153  POPC      H8X            57.9395775845      -50.3842116972        5.9601514473  MEMB      153             0.0000000000
     18617       153  POPC      H8Y            57.5929389249      -48.5530070406        6.1305455696  MEMB      153             0.0000000000
     18618       153  POPC      C39            56.0952298353      -49.7093798895        4.9780946584  MEMB      153             0.0000000000
     18619       153  POPC      H9X            55.5140305554      -48.7808255848        5.1633385059  MEMB      153             0.0000000000
     18620       153  POPC      H9Y            55.4340509275      -50.6007635370        5.0290751948  MEMB      153             0.0000000000
     18621       153  POPC      C310           56.5256480871      -49.7968343797        3.4950671817  MEMB      153             0.0000000000
     18622       153  POPC      H10X           55.5518472084      -49.9823693783        2.9934603065  MEMB      153             0.0000000000
     18623       153  POPC      H10Y           57.1159483289      -50.7154235928        3.2899808112  MEMB      153             0.0000000000
     18624       153  POPC      C311           57.3315701563      -48.5861251200        2.9799950015  MEMB      153             0.0000000000
     18625       153  POPC      H11X           58.3474900131      -48.4541051857        3.4098770294  MEMB      153             0.0000000000
     18626       153  POPC      H11Y           56.7792649817      -47.6708303478        3.2825103506  MEMB      153             0.0000000000
     18627       153  POPC      C312           57.5001957849      -48.4958175174        1.4294219843  MEMB      153             0.0000000000
     18628       153  POPC      H12X           57.8621697422      -49.5072650051        1.1461015595  MEMB      153             0.0000000000
     18629       153  POPC      H12Y           58.3098968490      -47.7922321024        1.1401584706  MEMB      153             0.0000000000
     18630       153  POPC      C313           56.3490061274      -47.8471516867        0.6864662800  MEMB      153             0.0000000000
     18631       153  POPC      H13X           56.1701275617      -46.8529827209        1.1490145829  MEMB      153             0.0000000000
     18632       153  POPC      H13Y           55.3414916193      -48.3140773170        0.7213328380  MEMB      153             0.0000000000
     18633       153  POPC      C314           56.5436257949      -47.6153923427       -0.8546209961  MEMB      153             0.0000000000
     18634       153  POPC      H14X           57.3087414996      -46.8313579760       -1.0395795998  MEMB      153             0.0000000000
     18635       153  POPC      H14Y           55.5842691330      -47.3245050478       -1.3335162070  MEMB      153             0.0000000000
     18636       153  POPC      C315           56.7459416107      -48.8479498803       -1.6460243589  MEMB      153             0.0000000000
     18637       153  POPC      H15X           57.7477765281      -49.2817739015       -1.4400031249  MEMB      153             0.0000000000
     18638       153  POPC      H15Y           56.8333568202      -48.4663506892       -2.6857645137  MEMB      153             0.0000000000
     18639       153  POPC      C316           55.6141466373      -49.8209158199       -1.3479770934  MEMB      153             0.0000000000
     18640       153  POPC      H16X           55.7503640112      -50.2637312077       -0.3381848216  MEMB      153             0.0000000000
     18641       153  POPC      H16Y           55.6272289761      -50.6784894742       -2.0541760558  MEMB      153             0.0000000000
     18642       153  POPC      H16Z           54.5463948167      -49.5436508664       -1.4796998712  MEMB      153             0.0000000000
     18643       154  POPC      N              50.6340462697      -55.3874279282       20.0779380882  MEMB      154             0.0000000000
     18644       154  POPC      C12            50.4015834020      -56.8838816456       20.1083359033  MEMB      154             0.0000000000
     18645       154  POPC      H12A           49.4568916564      -57.0338972267       20.6097866521  MEMB      154             0.0000000000
     18646       154  POPC      H12B           51.1446344947      -57.3168094822       20.7616723430  MEMB      154             0.0000000000
     18647       154  POPC      C13            49.7459979972      -54.7273014792       19.0718720213  MEMB      154             0.0000000000
     18648       154  POPC      H13A           48.6978426477      -54.9425955967       19.2182239415  MEMB      154             0.0000000000
     18649       154  POPC      H13B           49.9725967379      -53.6998014303       18.8283629882  MEMB      154             0.0000000000
     18650       154  POPC      H13C           50.0627091092      -55.2174987366       18.1631362188  MEMB      154             0.0000000000
     18651       154  POPC      C14            50.1297235983      -54.9445807467       21.5019487659  MEMB      154             0.0000000000
     18652       154  POPC      H14A           50.1310628099      -53.8660780599       21.4451124560  MEMB      154             0.0000000000
     18653       154  POPC      H14B           49.2235112146      -55.4774499501       21.7493950152  MEMB      154             0.0000000000
     18654       154  POPC      H14C           50.9212451037      -55.2916978337       22.1495624283  MEMB      154             0.0000000000
     18655       154  POPC      C15            52.0772477560      -54.9856697399       19.8998166735  MEMB      154             0.0000000000
     18656       154  POPC      H15A           52.1211323628      -53.9226052236       19.7144304500  MEMB      154             0.0000000000
     18657       154  POPC      H15B           52.4551877867      -55.4490239775       19.0004479316  MEMB      154             0.0000000000
     18658       154  POPC      H15C           52.6815782780      -55.3935794453       20.6965564229  MEMB      154             0.0000000000
     18659       154  POPC      C11            50.4367027047      -57.7099680148       18.8190619310  MEMB      154             0.0000000000
     18660       154  POPC      H11A           49.5116808745      -57.5828539193       18.2169842893  MEMB      154             0.0000000000
     18661       154  POPC      H11B           50.4551218559      -58.7731064460       19.1411153116  MEMB      154             0.0000000000
     18662       154  POPC      P              52.8889173516      -58.1236978593       17.8964471901  MEMB      154             0.0000000000
     18663       154  POPC      O13            53.5867910697      -57.7743562837       19.1710151657  MEMB      154             0.0000000000
     18664       154  POPC      O14            53.4705893713      -57.8157096155       16.5583733450  MEMB      154             0.0000000000
     18665       154  POPC      O12            51.4987568814      -57.3225877334       17.9330813101  MEMB      154             0.0000000000
     18666       154  POPC      O11            52.3802132079      -59.6598996744       17.9621096094  MEMB      154             0.0000000000
     18667       154  POPC      C1             53.3514545987      -60.6971700444       18.2432378759  MEMB      154             0.0000000000
     18668       154  POPC      HA             52.9692180537      -61.4800713172       18.9326446440  MEMB      154             0.0000000000
     18669       154  POPC      HB             54.3114520535      -60.2683359994       18.6021630283  MEMB      154             0.0000000000
     18670       154  POPC      C2             53.8013482609      -61.4126110941       16.9520106618  MEMB      154             0.0000000000
     18671       154  POPC      HS             54.3973085284      -62.3183647258       17.1944208094  MEMB      154             0.0000000000
     18672       154  POPC      O21            54.5188910665      -60.4969846870       16.2150524523  MEMB      154             0.0000000000
     18673       154  POPC      C21            55.2982564198      -60.8779623517       15.2300822969  MEMB      154             0.0000000000
     18674       154  POPC      O22            55.3441632745      -62.0091427782       14.7474171048  MEMB      154             0.0000000000
     18675       154  POPC      C22            56.0962765224      -59.7090129293       14.7020840321  MEMB      154             0.0000000000
     18676       154  POPC      H2R            57.1512397023      -60.0424740626       14.8029675213  MEMB      154             0.0000000000
     18677       154  POPC      H2S            55.9945082372      -58.9068096234       15.4639460579  MEMB      154             0.0000000000
     18678       154  POPC      C3             52.6947487117      -62.0292258186       16.0350204854  MEMB      154             0.0000000000
     18679       154  POPC      HX             52.0496385118      -62.7359296205       16.5995765826  MEMB      154             0.0000000000
     18680       154  POPC      HY             53.1940753195      -62.5766610647       15.2071869044  MEMB      154             0.0000000000
     18681       154  POPC      O31            51.8189695550      -61.0542917097       15.4741717422  MEMB      154             0.0000000000
     18682       154  POPC      C31            50.9994037693      -61.5538612986       14.4933679175  MEMB      154             0.0000000000
     18683       154  POPC      O32            50.9458674628      -62.6852784571       14.0688770794  MEMB      154             0.0000000000
     18684       154  POPC      C32            50.1879549221      -60.3401166155       14.1268103762  MEMB      154             0.0000000000
     18685       154  POPC      H2X            50.0004166719      -59.7149496150       15.0258746693  MEMB      154             0.0000000000
     18686       154  POPC      H2Y            49.2553178018      -60.7415555125       13.6758609482  MEMB      154             0.0000000000
     18687       154  POPC      C23            55.8929459082      -59.5567095410       13.2333697791  MEMB      154             0.0000000000
     18688       154  POPC      H3R            54.8248739299      -59.3545604102       13.0038509533  MEMB      154             0.0000000000
     18689       154  POPC      H3S            56.2358028945      -60.4217445003       12.6263402828  MEMB      154             0.0000000000
     18690       154  POPC      C24            56.6781284404      -58.3533419074       12.6999352430  MEMB      154             0.0000000000
     18691       154  POPC      H4R            57.7582970558      -58.5884393345       12.8107778656  MEMB      154             0.0000000000
     18692       154  POPC      H4S            56.3670713974      -57.4755957494       13.3058448296  MEMB      154             0.0000000000
     18693       154  POPC      C25            56.2094335924      -57.8273689631       11.2904771816  MEMB      154             0.0000000000
     18694       154  POPC      H5R            56.7611365680      -56.8750439493       11.1387481720  MEMB      154             0.0000000000
     18695       154  POPC      H5S            55.1457002359      -57.5333854949       11.4184087621  MEMB      154             0.0000000000
     18696       154  POPC      C26            56.5419722044      -58.7981522758       10.1251939913  MEMB      154             0.0000000000
     18697       154  POPC      H6R            56.1924553594      -59.7636794607       10.5493592187  MEMB      154             0.0000000000
     18698       154  POPC      H6S            57.6507096035      -58.8191057163       10.0574898258  MEMB      154             0.0000000000
     18699       154  POPC      C27            55.7386618312      -58.4983760810        8.8770411824  MEMB      154             0.0000000000
     18700       154  POPC      H7R            54.6873615104      -58.6616744956        9.1970765924  MEMB      154             0.0000000000
     18701       154  POPC      H7S            55.9091497705      -59.1553408061        7.9974670007  MEMB      154             0.0000000000
     18702       154  POPC      C28            55.8566887143      -56.9818773329        8.5319933141  MEMB      154             0.0000000000
     18703       154  POPC      H8R            55.6138638576      -56.3725909251        9.4287243511  MEMB      154             0.0000000000
     18704       154  POPC      H8S            55.0617543873      -56.7055857436        7.8066913593  MEMB      154             0.0000000000
     18705       154  POPC      C29            57.1382816209      -56.7105644461        7.7781055733  MEMB      154             0.0000000000
     18706       154  POPC      H91            58.0576399522      -56.8115187935        8.3735795862  MEMB      154             0.0000000000
     18707       154  POPC      C210           57.2025235349      -56.2262480515        6.4939162045  MEMB      154             0.0000000000
     18708       154  POPC      H101           58.1918901965      -55.9887372249        6.0758949070  MEMB      154             0.0000000000
     18709       154  POPC      C211           56.1118589779      -55.8853684575        5.5540408302  MEMB      154             0.0000000000
     18710       154  POPC      H11R           56.4522350483      -54.8615574336        5.2889447663  MEMB      154             0.0000000000
     18711       154  POPC      H11S           55.1365741201      -55.7713070501        6.0737817299  MEMB      154             0.0000000000
     18712       154  POPC      C212           56.0261043575      -56.7937856475        4.3450094543  MEMB      154             0.0000000000
     18713       154  POPC      H12R           55.5922258722      -57.8013157773        4.5209457150  MEMB      154             0.0000000000
     18714       154  POPC      H12S           57.0227944084      -57.0114184378        3.9050487235  MEMB      154             0.0000000000
     18715       154  POPC      C213           55.1631891403      -56.2046964079        3.2164761623  MEMB      154             0.0000000000
     18716       154  POPC      H13R           55.7509018265      -55.3559463572        2.8059426060  MEMB      154             0.0000000000
     18717       154  POPC      H13S           54.2576127165      -55.7482550600        3.6702535719  MEMB      154             0.0000000000
     18718       154  POPC      C214           54.8993676213      -57.0076399537        1.9448788543  MEMB      154             0.0000000000
     18719       154  POPC      H14R           54.4994604371      -56.2997739491        1.1876996664  MEMB      154             0.0000000000
     18720       154  POPC      H14S           54.1153543264      -57.7669975181        2.1522927168  MEMB      154             0.0000000000
     18721       154  POPC      C215           56.1496237129      -57.7921867632        1.3123005575  MEMB      154             0.0000000000
     18722       154  POPC      H15R           56.4414462413      -58.6529779854        1.9512055762  MEMB      154             0.0000000000
     18723       154  POPC      H15S           56.9559565945      -57.0279421057        1.3034544627  MEMB      154             0.0000000000
     18724       154  POPC      C216           55.9727374418      -58.4620910572       -0.0324265248  MEMB      154             0.0000000000
     18725       154  POPC      H16R           56.7845931152      -59.2090539122       -0.1637954487  MEMB      154             0.0000000000
     18726       154  POPC      H16S           55.9770678158      -57.6715459480       -0.8130287651  MEMB      154             0.0000000000
     18727       154  POPC      C217           54.6860459715      -59.1983610629       -0.1398940667  MEMB      154             0.0000000000
     18728       154  POPC      H17R           53.8568258416      -58.4968747515        0.0938386392  MEMB      154             0.0000000000
     18729       154  POPC      H17S           54.6763734171      -60.0031665233        0.6259485839  MEMB      154             0.0000000000
     18730       154  POPC      C218           54.5092484742      -59.9438167238       -1.5016993487  MEMB      154             0.0000000000
     18731       154  POPC      H18R           54.4455145368      -59.1279134245       -2.2530718332  MEMB      154             0.0000000000
     18732       154  POPC      H18S           53.6125319684      -60.5995499594       -1.4863856694  MEMB      154             0.0000000000
     18733       154  POPC      H18T           55.4324101479      -60.5510729255       -1.6171695786  MEMB      154             0.0000000000
     18734       154  POPC      C33            51.0536639052      -59.5410658051       13.1384624115  MEMB      154             0.0000000000
     18735       154  POPC      H3X            51.3270623020      -60.3126498167       12.3873081171  MEMB      154             0.0000000000
     18736       154  POPC      H3Y            51.9476920800      -59.1508159512       13.6701951631  MEMB      154             0.0000000000
     18737       154  POPC      C34            50.2562492208      -58.4433349382       12.4699050914  MEMB      154             0.0000000000
     18738       154  POPC      H4X            50.4903643525      -57.5025310456       13.0124903104  MEMB      154             0.0000000000
     18739       154  POPC      H4Y            49.1567087291      -58.5984649290       12.5054875174  MEMB      154             0.0000000000
     18740       154  POPC      C35            50.8194820263      -58.0790103153       11.0122559938  MEMB      154             0.0000000000
     18741       154  POPC      H5X            50.6018177725      -58.9502927513       10.3581843905  MEMB      154             0.0000000000
     18742       154  POPC      H5Y            51.9060660543      -57.9179460671       11.1787325299  MEMB      154             0.0000000000
     18743       154  POPC      C36            50.1570069263      -56.8775492706       10.3360841626  MEMB      154             0.0000000000
     18744       154  POPC      H6X            49.9022784161      -56.1244997970       11.1121970734  MEMB      154             0.0000000000
     18745       154  POPC      H6Y            49.1703121346      -57.1308390713        9.8926897066  MEMB      154             0.0000000000
     18746       154  POPC      C37            51.0530845107      -56.2729150536        9.2679768632  MEMB      154             0.0000000000
     18747       154  POPC      H7X            52.0886886477      -56.4060198563        9.6476186866  MEMB      154             0.0000000000
     18748       154  POPC      H7Y            50.6611882294      -55.2508116004        9.0781259087  MEMB      154             0.0000000000
     18749       154  POPC      C38            50.9699196667      -57.1995522557        8.0366024442  MEMB      154             0.0000000000
     18750       154  POPC      H8X            49.9309749962      -57.5431802793        7.8446780535  MEMB      154             0.0000000000
     18751       154  POPC      H8Y            51.6013993165      -58.0769495140        8.2929783903  MEMB      154             0.0000000000
     18752       154  POPC      C39            51.6129935472      -56.3949152052        6.8127531878  MEMB      154             0.0000000000
     18753       154  POPC      H9X            52.6721483989      -56.2842750286        7.1294089835  MEMB      154             0.0000000000
     18754       154  POPC      H9Y            51.1535574112      -55.3843204735        6.8567673237  MEMB      154             0.0000000000
     18755       154  POPC      C310           51.3013122192      -57.1960452172        5.4910803701  MEMB      154             0.0000000000
     18756       154  POPC      H10X           51.4967966203      -56.3611336868        4.7846600594  MEMB      154             0.0000000000
     18757       154  POPC      H10Y           50.2805807530      -57.6343689718        5.4737425980  MEMB      154             0.0000000000
     18758       154  POPC      C311           52.3448571977      -58.3283494770        5.3619873885  MEMB      154             0.0000000000
     18759       154  POPC      H11X           52.2540564192      -59.1418082233        6.1132267884  MEMB      154             0.0000000000
     18760       154  POPC      H11Y           53.3661622777      -57.8913718834        5.3795227143  MEMB      154             0.0000000000
     18761       154  POPC      C312           52.1910970534      -59.0232500425        4.0367773469  MEMB      154             0.0000000000
     18762       154  POPC      H12X           53.1203354058      -59.5045815987        3.6637407050  MEMB      154             0.0000000000
     18763       154  POPC      H12Y           51.8824735801      -58.2662785600        3.2844031951  MEMB      154             0.0000000000
     18764       154  POPC      C313           51.1976642157      -60.1945151819        4.0253893649  MEMB      154             0.0000000000
     18765       154  POPC      H13X           50.2067319973      -59.7519700375        4.2631452534  MEMB      154             0.0000000000
     18766       154  POPC      H13Y           51.5730479971      -61.0253953886        4.6602483740  MEMB      154             0.0000000000
     18767       154  POPC      C314           51.0804962668      -60.7405409237        2.5329331190  MEMB      154             0.0000000000
     18768       154  POPC      H14X           50.3205985843      -61.5447336612        2.6336821947  MEMB      154             0.0000000000
     18769       154  POPC      H14Y           52.0715635880      -61.2037215470        2.3391022482  MEMB      154             0.0000000000
     18770       154  POPC      C315           50.5904975369      -59.8811322036        1.4420605118  MEMB      154             0.0000000000
     18771       154  POPC      H15X           51.3098510377      -59.0364183192        1.3845273735  MEMB      154             0.0000000000
     18772       154  POPC      H15Y           49.5798069111      -59.4621887610        1.6352254624  MEMB      154             0.0000000000
     18773       154  POPC      C316           50.6805736415      -60.5869285709        0.0182312507  MEMB      154             0.0000000000
     18774       154  POPC      H16X           50.7224341237      -59.8648935573       -0.8251160080  MEMB      154             0.0000000000
     18775       154  POPC      H16Y           49.9560182436      -61.4128728805       -0.1465618261  MEMB      154             0.0000000000
     18776       154  POPC      H16Z           51.7016483269      -61.0141740049        0.1140881866  MEMB      154             0.0000000000
     18777       155  CHL1      C3             16.8041115038      -32.2024705102      -17.3527050000  MEMB      155             0.0000000000
     18778       155  CHL1      H3             16.1460025987      -33.0975094619      -17.3634950000  MEMB      155             0.0000000000
     18779       155  CHL1      O3             17.0953012962      -31.9188808898      -18.6472950000  MEMB      155             0.0000000000
     18780       155  CHL1      H3'            17.7186407155      -31.2102977984      -18.4713450000  MEMB      155             0.0000000000
     18781       155  CHL1      C4             16.2156280873      -31.0245883569      -16.5889850000  MEMB      155             0.0000000000
     18782       155  CHL1      H4A            16.8990082062      -30.1836906164      -16.8343550000  MEMB      155             0.0000000000
     18783       155  CHL1      H4B            15.2164715248      -30.8855485953      -17.0544750000  MEMB      155             0.0000000000
     18784       155  CHL1      C5             15.9579319781      -31.3979443173      -15.1441350000  MEMB      155             0.0000000000
     18785       155  CHL1      C6             14.7176040490      -31.3289198749      -14.6280350000  MEMB      155             0.0000000000
     18786       155  CHL1      H6             13.9105972913      -30.9416590517      -15.2673850000  MEMB      155             0.0000000000
     18787       155  CHL1      C7             14.4626193780      -31.6144821281      -13.1465750000  MEMB      155             0.0000000000
     18788       155  CHL1      H7A            13.7473726861      -30.8408884266      -12.7940450000  MEMB      155             0.0000000000
     18789       155  CHL1      H7B            14.0586420681      -32.6107293865      -12.8661950000  MEMB      155             0.0000000000
     18790       155  CHL1      C8             15.7239853146      -31.5243298048      -12.2538450000  MEMB      155             0.0000000000
     18791       155  CHL1      H8             16.0548886959      -30.4638369663      -12.2410550000  MEMB      155             0.0000000000
     18792       155  CHL1      C14            15.4446193977      -32.0716286348      -10.9035450000  MEMB      155             0.0000000000
     18793       155  CHL1      H14            14.9138744667      -33.0331672657      -11.0711250000  MEMB      155             0.0000000000
     18794       155  CHL1      C15            14.4710269127      -31.2429872434       -9.9489050000  MEMB      155             0.0000000000
     18795       155  CHL1      H15A           14.8356765632      -30.1937305170       -9.9286450000  MEMB      155             0.0000000000
     18796       155  CHL1      H15B           13.4476172003      -31.4429483951      -10.3322850000  MEMB      155             0.0000000000
     18797       155  CHL1      C16            14.6346865653      -32.0098625387       -8.6396450000  MEMB      155             0.0000000000
     18798       155  CHL1      H16A           14.8812120307      -31.2452838091       -7.8722050000  MEMB      155             0.0000000000
     18799       155  CHL1      H16B           13.6920783888      -32.5798012964       -8.4947850000  MEMB      155             0.0000000000
     18800       155  CHL1      C17            15.9646029230      -32.9058713129       -8.7057150000  MEMB      155             0.0000000000
     18801       155  CHL1      H17            15.5387418622      -33.9057690022       -8.9362650000  MEMB      155             0.0000000000
     18802       155  CHL1      C13            16.6503776549      -32.4062018682      -10.0024750000  MEMB      155             0.0000000000
     18803       155  CHL1      C18            17.4459918645      -31.1697417798       -9.4828750000  MEMB      155             0.0000000000
     18804       155  CHL1      H18A           18.2968856121      -31.5004392137       -8.8496750000  MEMB      155             0.0000000000
     18805       155  CHL1      H18B           17.8753183233      -30.5197470863      -10.2750250000  MEMB      155             0.0000000000
     18806       155  CHL1      H18C           16.8313342686      -30.4696824720       -8.8775350000  MEMB      155             0.0000000000
     18807       155  CHL1      C12            17.6018349301      -33.3063356632      -10.7455550000  MEMB      155             0.0000000000
     18808       155  CHL1      H12A           18.4522625844      -33.5981014550      -10.0928950000  MEMB      155             0.0000000000
     18809       155  CHL1      H12B           17.0973849953      -34.2919823108      -10.8369750000  MEMB      155             0.0000000000
     18810       155  CHL1      C11            18.0368753412      -32.6803154572      -12.0773550000  MEMB      155             0.0000000000
     18811       155  CHL1      H11A           18.5492935685      -31.7174340202      -11.8661150000  MEMB      155             0.0000000000
     18812       155  CHL1      H11B           18.7086842893      -33.3343796627      -12.6733350000  MEMB      155             0.0000000000
     18813       155  CHL1      C9             16.8074411463      -32.3417169941      -12.9315250000  MEMB      155             0.0000000000
     18814       155  CHL1      H9             16.2826808854      -33.3152502997      -13.0373050000  MEMB      155             0.0000000000
     18815       155  CHL1      C10            17.1798249993      -31.7991764366      -14.3731050000  MEMB      155             0.0000000000
     18816       155  CHL1      C19            18.2258185624      -30.6578170136      -14.2588350000  MEMB      155             0.0000000000
     18817       155  CHL1      H19A           18.1761508854      -29.9742383513      -15.1332350000  MEMB      155             0.0000000000
     18818       155  CHL1      H19B           17.8394263608      -29.9717927427      -13.4750050000  MEMB      155             0.0000000000
     18819       155  CHL1      H19C           19.2241622943      -31.0287467744      -13.9425650000  MEMB      155             0.0000000000
     18820       155  CHL1      C1             17.8085220104      -32.9758516876      -15.1926850000  MEMB      155             0.0000000000
     18821       155  CHL1      H1A            18.7570294275      -33.2360895024      -14.6760450000  MEMB      155             0.0000000000
     18822       155  CHL1      H1B            17.1347262634      -33.8541825728      -15.0986050000  MEMB      155             0.0000000000
     18823       155  CHL1      C2             18.0836607920      -32.6458554572      -16.6459550000  MEMB      155             0.0000000000
     18824       155  CHL1      H2A            18.5217884726      -33.5797926627      -17.0584250000  MEMB      155             0.0000000000
     18825       155  CHL1      H2B            18.8909037058      -31.8827232622      -16.6639650000  MEMB      155             0.0000000000
     18826       155  CHL1      C20            16.6690866503      -33.0623527337       -7.3368050000  MEMB      155             0.0000000000
     18827       155  CHL1      H20            17.1259807518      -32.0693241333       -7.1381350000  MEMB      155             0.0000000000
     18828       155  CHL1      C21            17.7303578786      -34.2056497128       -7.2814950000  MEMB      155             0.0000000000
     18829       155  CHL1      H21A           17.4307816957      -35.0296831804       -6.5991850000  MEMB      155             0.0000000000
     18830       155  CHL1      H21B           18.7470701456      -33.9528104123       -6.9117950000  MEMB      155             0.0000000000
     18831       155  CHL1      H21C           17.8032248371      -34.5993965359       -8.3178250000  MEMB      155             0.0000000000
     18832       155  CHL1      C22            15.6529438527      -33.2085077588       -6.0820550000  MEMB      155             0.0000000000
     18833       155  CHL1      H22A           14.6923627938      -32.6506344597       -6.0623450000  MEMB      155             0.0000000000
     18834       155  CHL1      H22B           15.3471913693      -34.2764406465       -6.1009550000  MEMB      155             0.0000000000
     18835       155  CHL1      C23            16.4004171163      -32.9836814840       -4.8092650000  MEMB      155             0.0000000000
     18836       155  CHL1      H23A           17.0992410734      -33.8294842672       -4.6343750000  MEMB      155             0.0000000000
     18837       155  CHL1      H23B           17.0382257502      -32.0903093826       -4.9807250000  MEMB      155             0.0000000000
     18838       155  CHL1      C24            15.4297749855      -32.7316674488       -3.6475050000  MEMB      155             0.0000000000
     18839       155  CHL1      H24A           15.0429794620      -31.7212497762       -3.9000450000  MEMB      155             0.0000000000
     18840       155  CHL1      H24B           14.6462480460      -33.5136246742       -3.7420050000  MEMB      155             0.0000000000
     18841       155  CHL1      C25            16.1229635326      -32.6425128245       -2.3176550000  MEMB      155             0.0000000000
     18842       155  CHL1      H25            16.7806490361      -31.7471402096       -2.3269850000  MEMB      155             0.0000000000
     18843       155  CHL1      C26            15.1251926094      -32.4686319937       -1.1351950000  MEMB      155             0.0000000000
     18844       155  CHL1      H26A           15.6850474950      -32.4075142685       -0.1775150000  MEMB      155             0.0000000000
     18845       155  CHL1      H26B           14.3935544212      -31.6567912942       -1.3350850000  MEMB      155             0.0000000000
     18846       155  CHL1      H26C           14.5151540874      -33.3806000673       -0.9606050000  MEMB      155             0.0000000000
     18847       155  CHL1      C27            16.9480030222      -33.9621231995       -1.9721450000  MEMB      155             0.0000000000
     18848       155  CHL1      H27A           17.0464141106      -34.0194204757       -0.8669950000  MEMB      155             0.0000000000
     18849       155  CHL1      H27B           16.4588820472      -34.8953888630       -2.3243950000  MEMB      155             0.0000000000
     18850       155  CHL1      H27C           17.9463127977      -33.8884527370       -2.4540950000  MEMB      155             0.0000000000
     18851       156  CHL1      C3            -39.8877442051      -41.4653967325      -17.3099050000  MEMB      156             0.0000000000
     18852       156  CHL1      H3            -40.9387442386      -41.4160657342      -16.9531350000  MEMB      156             0.0000000000
     18853       156  CHL1      O3            -39.7680705949      -41.0869590675      -18.6900950000  MEMB      156             0.0000000000
     18854       156  CHL1      H3'           -40.4745904899      -41.5899837082      -19.1016750000  MEMB      156             0.0000000000
     18855       156  CHL1      C4            -38.9606360403      -40.6210308522      -16.5297250000  MEMB      156             0.0000000000
     18856       156  CHL1      H4A           -37.9218303940      -40.7510070309      -16.9016150000  MEMB      156             0.0000000000
     18857       156  CHL1      H4B           -39.2171678634      -39.5544419176      -16.7055050000  MEMB      156             0.0000000000
     18858       156  CHL1      C5            -39.0802531805      -41.0294344731      -15.0263650000  MEMB      156             0.0000000000
     18859       156  CHL1      C6            -39.4981898653      -40.1987943954      -14.0605850000  MEMB      156             0.0000000000
     18860       156  CHL1      H6            -39.8157415663      -39.1891654423      -14.3602850000  MEMB      156             0.0000000000
     18861       156  CHL1      C7            -39.5635569195      -40.6389437715      -12.5567250000  MEMB      156             0.0000000000
     18862       156  CHL1      H7A           -39.1973413417      -39.7630831444      -11.9795950000  MEMB      156             0.0000000000
     18863       156  CHL1      H7B           -40.5976520152      -40.6265708126      -12.1507450000  MEMB      156             0.0000000000
     18864       156  CHL1      C8            -38.9047942692      -41.9558889755      -12.2347150000  MEMB      156             0.0000000000
     18865       156  CHL1      H8            -37.8245127719      -41.6965579153      -12.2267050000  MEMB      156             0.0000000000
     18866       156  CHL1      C14           -39.4180533542      -42.3920675277      -10.8483550000  MEMB      156             0.0000000000
     18867       156  CHL1      H14           -40.5106538912      -42.5109877577      -11.0108250000  MEMB      156             0.0000000000
     18868       156  CHL1      C15           -39.2635700937      -41.5090584494       -9.6267950000  MEMB      156             0.0000000000
     18869       156  CHL1      H15A          -38.2224005668      -41.1238379144       -9.5834450000  MEMB      156             0.0000000000
     18870       156  CHL1      H15B          -39.9349399068      -40.6384229838       -9.4668850000  MEMB      156             0.0000000000
     18871       156  CHL1      C16           -39.5660436205      -42.4393583439       -8.3898650000  MEMB      156             0.0000000000
     18872       156  CHL1      H16A          -38.8209554523      -42.4265810763       -7.5658550000  MEMB      156             0.0000000000
     18873       156  CHL1      H16B          -40.4067735490      -42.0871318233       -7.7546850000  MEMB      156             0.0000000000
     18874       156  CHL1      C17           -39.6021993988      -43.8774410136       -9.0120850000  MEMB      156             0.0000000000
     18875       156  CHL1      H17           -40.6546325841      -44.2013158553       -9.1597350000  MEMB      156             0.0000000000
     18876       156  CHL1      C13           -38.8991618862      -43.7161319850      -10.3855950000  MEMB      156             0.0000000000
     18877       156  CHL1      C18           -37.3309560718      -43.7879440143      -10.0910250000  MEMB      156             0.0000000000
     18878       156  CHL1      H18A          -36.9182702608      -43.2658013822      -10.9806250000  MEMB      156             0.0000000000
     18879       156  CHL1      H18B          -37.0364146976      -43.1377072376       -9.2396950000  MEMB      156             0.0000000000
     18880       156  CHL1      H18C          -37.0507036235      -44.8569556615       -9.9770750000  MEMB      156             0.0000000000
     18881       156  CHL1      C12           -39.3065886098      -44.7709499367      -11.4137650000  MEMB      156             0.0000000000
     18882       156  CHL1      H12A          -38.9836867077      -45.8082022594      -11.1810550000  MEMB      156             0.0000000000
     18883       156  CHL1      H12B          -40.4066459003      -44.8103244739      -11.5642450000  MEMB      156             0.0000000000
     18884       156  CHL1      C11           -38.7478409004      -44.4689613825      -12.8599050000  MEMB      156             0.0000000000
     18885       156  CHL1      H11A          -37.6474298613      -44.6163959945      -12.8189150000  MEMB      156             0.0000000000
     18886       156  CHL1      H11B          -39.2485017154      -45.2089331230      -13.5202950000  MEMB      156             0.0000000000
     18887       156  CHL1      C9            -39.1535724208      -43.0209443251      -13.3071550000  MEMB      156             0.0000000000
     18888       156  CHL1      H9            -40.2545792919      -43.1690032587      -13.2932450000  MEMB      156             0.0000000000
     18889       156  CHL1      C10           -38.8038015334      -42.5705561939      -14.7296650000  MEMB      156             0.0000000000
     18890       156  CHL1      C19           -37.2856467777      -42.8337669161      -14.9427450000  MEMB      156             0.0000000000
     18891       156  CHL1      H19A          -37.2337880386      -43.8967928738      -15.2615150000  MEMB      156             0.0000000000
     18892       156  CHL1      H19B          -36.7988591136      -42.3040602459      -15.7893650000  MEMB      156             0.0000000000
     18893       156  CHL1      H19C          -36.7660291931      -42.6798995397      -13.9728750000  MEMB      156             0.0000000000
     18894       156  CHL1      C1            -39.5580361789      -43.4288400394      -15.8179350000  MEMB      156             0.0000000000
     18895       156  CHL1      H1A           -39.1996961362      -44.4793658919      -15.7699050000  MEMB      156             0.0000000000
     18896       156  CHL1      H1B           -40.6336491539      -43.4839499776      -15.5452850000  MEMB      156             0.0000000000
     18897       156  CHL1      C2            -39.4654876114      -42.9509312958      -17.2340150000  MEMB      156             0.0000000000
     18898       156  CHL1      H2A           -40.0422222356      -43.6299643659      -17.8978150000  MEMB      156             0.0000000000
     18899       156  CHL1      H2B           -38.4027500814      -43.0118189448      -17.5521150000  MEMB      156             0.0000000000
     18900       156  CHL1      C20           -39.1274724116      -45.0037972831       -7.9770950000  MEMB      156             0.0000000000
     18901       156  CHL1      H20           -38.0899046659      -44.7115408539       -7.7080950000  MEMB      156             0.0000000000
     18902       156  CHL1      C21           -39.2232093666      -46.3853329080       -8.5087350000  MEMB      156             0.0000000000
     18903       156  CHL1      H21A          -40.1141703302      -46.5857363658       -9.1414750000  MEMB      156             0.0000000000
     18904       156  CHL1      H21B          -39.1226678659      -47.1366781585       -7.6965150000  MEMB      156             0.0000000000
     18905       156  CHL1      H21C          -38.4467500645      -46.5225806585       -9.2914250000  MEMB      156             0.0000000000
     18906       156  CHL1      C22           -39.8643341249      -44.9050655481       -6.6286950000  MEMB      156             0.0000000000
     18907       156  CHL1      H22A          -39.8562737373      -43.8819528898       -6.1956650000  MEMB      156             0.0000000000
     18908       156  CHL1      H22B          -40.9347870086      -45.1362984918       -6.8157450000  MEMB      156             0.0000000000
     18909       156  CHL1      C23           -39.1891057500      -45.7140734387       -5.5097250000  MEMB      156             0.0000000000
     18910       156  CHL1      H23A          -38.9281918133      -46.7245870135       -5.8906550000  MEMB      156             0.0000000000
     18911       156  CHL1      H23B          -38.2283099142      -45.2435814607       -5.2099850000  MEMB      156             0.0000000000
     18912       156  CHL1      C24           -40.2481712592      -45.8642449921       -4.4105850000  MEMB      156             0.0000000000
     18913       156  CHL1      H24A          -40.5691233011      -44.8223020995       -4.1968850000  MEMB      156             0.0000000000
     18914       156  CHL1      H24B          -41.1329666366      -46.3858327589       -4.8341450000  MEMB      156             0.0000000000
     18915       156  CHL1      C25           -39.8369786712      -46.5793315304       -3.0977750000  MEMB      156             0.0000000000
     18916       156  CHL1      H25           -39.2411590199      -47.4734677120       -3.3803350000  MEMB      156             0.0000000000
     18917       156  CHL1      C26           -39.1563402314      -45.6970623455       -2.0893250000  MEMB      156             0.0000000000
     18918       156  CHL1      H26A          -38.8750581233      -46.3956108146       -1.2724850000  MEMB      156             0.0000000000
     18919       156  CHL1      H26B          -38.2276319764      -45.3158296088       -2.5652250000  MEMB      156             0.0000000000
     18920       156  CHL1      H26C          -39.7512333751      -44.8801864486       -1.6276650000  MEMB      156             0.0000000000
     18921       156  CHL1      C27           -41.0278829324      -46.9965984292       -2.2931650000  MEMB      156             0.0000000000
     18922       156  CHL1      H27A          -41.6494051655      -46.0797239783       -2.2072750000  MEMB      156             0.0000000000
     18923       156  CHL1      H27B          -41.5561728493      -47.7618216891       -2.9011650000  MEMB      156             0.0000000000
     18924       156  CHL1      H27C          -40.7434759424      -47.3324849025       -1.2730550000  MEMB      156             0.0000000000
     18925       157  CHL1      C3             36.4624194509       22.8837439891      -17.3992550000  MEMB      157             0.0000000000
     18926       157  CHL1      H3             35.8247098842       21.9877114469      -17.5567150000  MEMB      157             0.0000000000
     18927       157  CHL1      O3             37.1458327491       23.2798078109      -18.6007450000  MEMB      157             0.0000000000
     18928       157  CHL1      H3'            36.4263482175       23.2693588833      -19.2362150000  MEMB      157             0.0000000000
     18929       157  CHL1      C4             35.4296901837       23.9830301887      -17.0718950000  MEMB      157             0.0000000000
     18930       157  CHL1      H4A            35.8653222912       24.9999395668      -17.1739950000  MEMB      157             0.0000000000
     18931       157  CHL1      H4B            34.6673817456       23.8993152887      -17.8757650000  MEMB      157             0.0000000000
     18932       157  CHL1      C5             34.8737211853       23.8194298168      -15.6775450000  MEMB      157             0.0000000000
     18933       157  CHL1      C6             33.5581617581       23.7680606591      -15.4987350000  MEMB      157             0.0000000000
     18934       157  CHL1      H6             32.9212499938       23.8607905153      -16.3907850000  MEMB      157             0.0000000000
     18935       157  CHL1      C7             32.9144954905       23.6453291552      -14.1415450000  MEMB      157             0.0000000000
     18936       157  CHL1      H7A            32.1507391948       24.4480092514      -14.0597050000  MEMB      157             0.0000000000
     18937       157  CHL1      H7B            32.4470412976       22.6482064742      -13.9947950000  MEMB      157             0.0000000000
     18938       157  CHL1      C8             33.8151794270       23.7471017693      -12.9775650000  MEMB      157             0.0000000000
     18939       157  CHL1      H8             33.9307567864       24.8138215875      -12.6893650000  MEMB      157             0.0000000000
     18940       157  CHL1      C14            33.1888840044       23.0813549707      -11.7922950000  MEMB      157             0.0000000000
     18941       157  CHL1      H14            32.9287695704       22.0242348133      -12.0139850000  MEMB      157             0.0000000000
     18942       157  CHL1      C15            31.8927431713       23.6452229526      -11.2633350000  MEMB      157             0.0000000000
     18943       157  CHL1      H15A           31.8670390143       24.7526669209      -11.3483250000  MEMB      157             0.0000000000
     18944       157  CHL1      H15B           31.0654810837       23.2948238891      -11.9169250000  MEMB      157             0.0000000000
     18945       157  CHL1      C16            31.7866749528       23.4080419130       -9.7322650000  MEMB      157             0.0000000000
     18946       157  CHL1      H16A           31.7017043840       24.4255617570       -9.2943750000  MEMB      157             0.0000000000
     18947       157  CHL1      H16B           30.8688802687       22.8208638626       -9.5149850000  MEMB      157             0.0000000000
     18948       157  CHL1      C17            33.1101863451       22.6459862449       -9.4215750000  MEMB      157             0.0000000000
     18949       157  CHL1      H17            32.8674192894       21.5846758051       -9.6429450000  MEMB      157             0.0000000000
     18950       157  CHL1      C13            34.1198420587       23.1182613048      -10.5245350000  MEMB      157             0.0000000000
     18951       157  CHL1      C18            34.5491607388       24.4839246522      -10.2096850000  MEMB      157             0.0000000000
     18952       157  CHL1      H18A           33.7009609296       25.1860271391      -10.0615950000  MEMB      157             0.0000000000
     18953       157  CHL1      H18B           35.2592287997       24.5839477646       -9.3610850000  MEMB      157             0.0000000000
     18954       157  CHL1      H18C           35.1651236951       24.9828402561      -10.9881450000  MEMB      157             0.0000000000
     18955       157  CHL1      C12            35.2941016311       22.2768410597      -10.7831050000  MEMB      157             0.0000000000
     18956       157  CHL1      H12A           36.0528845589       22.2921927469       -9.9717250000  MEMB      157             0.0000000000
     18957       157  CHL1      H12B           35.0839235304       21.2010865168      -10.9644650000  MEMB      157             0.0000000000
     18958       157  CHL1      C11            36.1019679201       22.6878053367      -12.0273450000  MEMB      157             0.0000000000
     18959       157  CHL1      H11A           36.8659154528       23.4527084210      -11.7711750000  MEMB      157             0.0000000000
     18960       157  CHL1      H11B           36.6756921504       21.7701510949      -12.2784850000  MEMB      157             0.0000000000
     18961       157  CHL1      C9             35.1346962744       23.0218983482      -13.2604350000  MEMB      157             0.0000000000
     18962       157  CHL1      H9             34.8303279627       21.9839411579      -13.5140950000  MEMB      157             0.0000000000
     18963       157  CHL1      C10            35.8442591685       23.6120630624      -14.5005650000  MEMB      157             0.0000000000
     18964       157  CHL1      C19            36.3739978644       25.0683816868      -14.1986350000  MEMB      157             0.0000000000
     18965       157  CHL1      H19A           37.1815148105       24.9259333741      -13.4490150000  MEMB      157             0.0000000000
     18966       157  CHL1      H19B           36.7768166704       25.6012111853      -15.0864150000  MEMB      157             0.0000000000
     18967       157  CHL1      H19C           35.6209106985       25.7575742098      -13.7602150000  MEMB      157             0.0000000000
     18968       157  CHL1      C1             36.9912104340       22.6528431332      -14.8608150000  MEMB      157             0.0000000000
     18969       157  CHL1      H1A            37.8083507531       22.9410069751      -14.1654250000  MEMB      157             0.0000000000
     18970       157  CHL1      H1B            36.7520150263       21.5721959841      -14.7642450000  MEMB      157             0.0000000000
     18971       157  CHL1      C2             37.5338876715       22.7766516267      -16.2897650000  MEMB      157             0.0000000000
     18972       157  CHL1      H2A            38.1820904454       21.9097437202      -16.5400050000  MEMB      157             0.0000000000
     18973       157  CHL1      H2B            38.0151711409       23.7777802172      -16.2691850000  MEMB      157             0.0000000000
     18974       157  CHL1      C20            33.6316748701       22.7823862023       -7.9561550000  MEMB      157             0.0000000000
     18975       157  CHL1      H20            33.9393574745       23.8342167038       -7.7736450000  MEMB      157             0.0000000000
     18976       157  CHL1      C21            34.8280113205       21.9008949944       -7.4558950000  MEMB      157             0.0000000000
     18977       157  CHL1      H21A           34.4862270139       20.8643151293       -7.6633050000  MEMB      157             0.0000000000
     18978       157  CHL1      H21B           35.0695337549       22.0656772668       -6.3840650000  MEMB      157             0.0000000000
     18979       157  CHL1      H21C           35.6835667736       22.1100676578       -8.1330950000  MEMB      157             0.0000000000
     18980       157  CHL1      C22            32.3756005184       22.6181699720       -6.9842750000  MEMB      157             0.0000000000
     18981       157  CHL1      H22A           31.4666560945       23.0812872219       -7.4243350000  MEMB      157             0.0000000000
     18982       157  CHL1      H22B           32.2012898948       21.5351532681       -6.8081950000  MEMB      157             0.0000000000
     18983       157  CHL1      C23            32.4682880291       23.3027368589       -5.6046250000  MEMB      157             0.0000000000
     18984       157  CHL1      H23A           33.2778196347       22.7279674739       -5.1060150000  MEMB      157             0.0000000000
     18985       157  CHL1      H23B           32.7291795365       24.3696803130       -5.7716350000  MEMB      157             0.0000000000
     18986       157  CHL1      C24            31.1695161621       23.3042956288       -4.7456350000  MEMB      157             0.0000000000
     18987       157  CHL1      H24A           30.4645425445       24.0764476991       -5.1212750000  MEMB      157             0.0000000000
     18988       157  CHL1      H24B           30.5659340176       22.3746706254       -4.6693950000  MEMB      157             0.0000000000
     18989       157  CHL1      C25            31.4918488923       23.8311106381       -3.2931350000  MEMB      157             0.0000000000
     18990       157  CHL1      H25            32.4518236139       24.3813812634       -3.3929350000  MEMB      157             0.0000000000
     18991       157  CHL1      C26            30.5072428468       24.9003928292       -2.8630050000  MEMB      157             0.0000000000
     18992       157  CHL1      H26A           30.8332012292       25.2394215316       -1.8564550000  MEMB      157             0.0000000000
     18993       157  CHL1      H26B           30.4837123291       25.8336495222       -3.4653250000  MEMB      157             0.0000000000
     18994       157  CHL1      H26C           29.4772401556       24.4945288754       -2.7697150000  MEMB      157             0.0000000000
     18995       157  CHL1      C27            31.7035378012       22.7158228670       -2.2332550000  MEMB      157             0.0000000000
     18996       157  CHL1      H27A           32.4302259173       21.9120952198       -2.4787850000  MEMB      157             0.0000000000
     18997       157  CHL1      H27B           31.9687739460       23.0898299221       -1.2212750000  MEMB      157             0.0000000000
     18998       157  CHL1      H27C           30.7168033343       22.2192519114       -2.1145650000  MEMB      157             0.0000000000
     18999       158  CHL1      C3            -38.0830504249      -25.2184993647      -17.3025750000  MEMB      158             0.0000000000
     19000       158  CHL1      H3            -38.6657316739      -24.2775882391      -17.2051750000  MEMB      158             0.0000000000
     19001       158  CHL1      O3            -37.9874293751      -25.4843676353      -18.6974250000  MEMB      158             0.0000000000
     19002       158  CHL1      H3'           -38.1637840116      -24.7115565868      -19.2389650000  MEMB      158             0.0000000000
     19003       158  CHL1      C4            -36.7307883358      -24.9319463988      -16.6996050000  MEMB      158             0.0000000000
     19004       158  CHL1      H4A           -36.0613960912      -25.8083657354      -16.8341550000  MEMB      158             0.0000000000
     19005       158  CHL1      H4B           -36.1771152640      -24.1227915726      -17.2221350000  MEMB      158             0.0000000000
     19006       158  CHL1      C5            -36.8652200268      -24.6041728406      -15.2392850000  MEMB      158             0.0000000000
     19007       158  CHL1      C6            -36.3379017033      -23.5018272169      -14.6818450000  MEMB      158             0.0000000000
     19008       158  CHL1      H6            -35.6051452639      -22.9166888943      -15.2569050000  MEMB      158             0.0000000000
     19009       158  CHL1      C7            -36.4301500728      -23.3259218693      -13.1624150000  MEMB      158             0.0000000000
     19010       158  CHL1      H7A           -35.4588744890      -22.9142794979      -12.8138550000  MEMB      158             0.0000000000
     19011       158  CHL1      H7B           -37.1973525113      -22.5509192808      -12.9500350000  MEMB      158             0.0000000000
     19012       158  CHL1      C8            -36.7747178692      -24.5655411442      -12.2937950000  MEMB      158             0.0000000000
     19013       158  CHL1      H8            -35.8702595230      -25.2105424547      -12.2782350000  MEMB      158             0.0000000000
     19014       158  CHL1      C14           -37.2631852382      -24.1350358864      -10.8789550000  MEMB      158             0.0000000000
     19015       158  CHL1      H14           -38.2338749285      -23.6326262137      -11.0781450000  MEMB      158             0.0000000000
     19016       158  CHL1      C15           -36.3970879878      -23.2047753418      -10.0513550000  MEMB      158             0.0000000000
     19017       158  CHL1      H15A          -35.3042092905      -23.3907995262       -9.9783950000  MEMB      158             0.0000000000
     19018       158  CHL1      H15B          -36.5305433157      -22.1579751341      -10.3988350000  MEMB      158             0.0000000000
     19019       158  CHL1      C16           -36.8454780801      -23.4139052002       -8.5578950000  MEMB      158             0.0000000000
     19020       158  CHL1      H16A          -36.0277743383      -23.5256196529       -7.8141250000  MEMB      158             0.0000000000
     19021       158  CHL1      H16B          -37.5404906739      -22.6190361090       -8.2122750000  MEMB      158             0.0000000000
     19022       158  CHL1      C17           -37.7969771631      -24.6993696308       -8.5584550000  MEMB      158             0.0000000000
     19023       158  CHL1      H17           -38.8105907820      -24.2456543495       -8.5907950000  MEMB      158             0.0000000000
     19024       158  CHL1      C13           -37.5615910070      -25.3570882548       -9.9873550000  MEMB      158             0.0000000000
     19025       158  CHL1      C18           -36.2110762868      -26.2406788227       -9.8228350000  MEMB      158             0.0000000000
     19026       158  CHL1      H18A          -36.4533904241      -27.1437832552       -9.2228150000  MEMB      158             0.0000000000
     19027       158  CHL1      H18B          -35.7262227208      -26.4834187288      -10.7925350000  MEMB      158             0.0000000000
     19028       158  CHL1      H18C          -35.4950095380      -25.6471793321       -9.2151250000  MEMB      158             0.0000000000
     19029       158  CHL1      C12           -38.7200820117      -26.0856403382      -10.5480250000  MEMB      158             0.0000000000
     19030       158  CHL1      H12A          -39.0661492642      -26.9576193088       -9.9528550000  MEMB      158             0.0000000000
     19031       158  CHL1      H12B          -39.5279865289      -25.3230871706      -10.5594250000  MEMB      158             0.0000000000
     19032       158  CHL1      C11           -38.3606934773      -26.5649526053      -11.9682050000  MEMB      158             0.0000000000
     19033       158  CHL1      H11A          -37.5572178837      -27.3321835005      -11.9779850000  MEMB      158             0.0000000000
     19034       158  CHL1      H11B          -39.2777970073      -27.0160256385      -12.4038150000  MEMB      158             0.0000000000
     19035       158  CHL1      C9            -37.9202374841      -25.3194281353      -12.9293650000  MEMB      158             0.0000000000
     19036       158  CHL1      H9            -38.8262111437      -24.6825109837      -13.0181050000  MEMB      158             0.0000000000
     19037       158  CHL1      C10           -37.6174994968      -25.6679668068      -14.3866650000  MEMB      158             0.0000000000
     19038       158  CHL1      C19           -36.8530444511      -27.1225157516      -14.3568150000  MEMB      158             0.0000000000
     19039       158  CHL1      H19A          -35.9013349392      -27.0723814725      -13.7858050000  MEMB      158             0.0000000000
     19040       158  CHL1      H19B          -37.5315457147      -27.9070411109      -13.9587350000  MEMB      158             0.0000000000
     19041       158  CHL1      H19C          -36.5058971934      -27.3826459755      -15.3796250000  MEMB      158             0.0000000000
     19042       158  CHL1      C1            -38.9459618085      -25.9735583543      -15.0909850000  MEMB      158             0.0000000000
     19043       158  CHL1      H1A           -39.5595787323      -26.7797142144      -14.6350150000  MEMB      158             0.0000000000
     19044       158  CHL1      H1B           -39.6366393911      -25.1051981794      -15.0340550000  MEMB      158             0.0000000000
     19045       158  CHL1      C2            -38.8493196998      -26.3362347199      -16.6141250000  MEMB      158             0.0000000000
     19046       158  CHL1      H2A           -39.8756247281      -26.4837274164      -17.0131850000  MEMB      158             0.0000000000
     19047       158  CHL1      H2B           -38.2411424482      -27.2613321945      -16.7069950000  MEMB      158             0.0000000000
     19048       158  CHL1      C20           -37.6788298953      -25.5756324306       -7.2960150000  MEMB      158             0.0000000000
     19049       158  CHL1      H20           -36.5975102142      -25.8218605488       -7.3627150000  MEMB      158             0.0000000000
     19050       158  CHL1      C21           -38.6272857905      -26.7312309064       -7.2508950000  MEMB      158             0.0000000000
     19051       158  CHL1      H21A          -38.6741125028      -27.2787403629       -6.2853050000  MEMB      158             0.0000000000
     19052       158  CHL1      H21B          -38.4010791051      -27.4376652632       -8.0779950000  MEMB      158             0.0000000000
     19053       158  CHL1      H21C          -39.6175687454      -26.2604496526       -7.4298550000  MEMB      158             0.0000000000
     19054       158  CHL1      C22           -37.7398503679      -24.7611303284       -6.0124150000  MEMB      158             0.0000000000
     19055       158  CHL1      H22A          -37.3295768437      -23.7334195381       -6.1114650000  MEMB      158             0.0000000000
     19056       158  CHL1      H22B          -38.8322039498      -24.7646608558       -5.8097550000  MEMB      158             0.0000000000
     19057       158  CHL1      C23           -37.1009312676      -25.4877300518       -4.8151950000  MEMB      158             0.0000000000
     19058       158  CHL1      H23A          -37.4908361765      -26.5271089743       -4.8598950000  MEMB      158             0.0000000000
     19059       158  CHL1      H23B          -35.9992116480      -25.5528750648       -4.9428450000  MEMB      158             0.0000000000
     19060       158  CHL1      C24           -37.3410673914      -24.8237458546       -3.4314650000  MEMB      158             0.0000000000
     19061       158  CHL1      H24A          -36.8405663448      -23.8335894557       -3.4899550000  MEMB      158             0.0000000000
     19062       158  CHL1      H24B          -38.4304394423      -24.7208192780       -3.2391350000  MEMB      158             0.0000000000
     19063       158  CHL1      C25           -36.7106302171      -25.6888320100       -2.2939450000  MEMB      158             0.0000000000
     19064       158  CHL1      H25           -37.1266504900      -26.7183054914       -2.2561650000  MEMB      158             0.0000000000
     19065       158  CHL1      C26           -35.1668284241      -25.6931036421       -2.4137150000  MEMB      158             0.0000000000
     19066       158  CHL1      H26A          -34.8402208815      -26.4541030270       -3.1543450000  MEMB      158             0.0000000000
     19067       158  CHL1      H26B          -34.7119238786      -24.7325804946       -2.7374050000  MEMB      158             0.0000000000
     19068       158  CHL1      H26C          -34.7668600322      -25.9186091842       -1.4020350000  MEMB      158             0.0000000000
     19069       158  CHL1      C27           -37.1766418131      -25.0689068283       -0.9840150000  MEMB      158             0.0000000000
     19070       158  CHL1      H27A          -38.2540293957      -25.2306914783       -0.7663450000  MEMB      158             0.0000000000
     19071       158  CHL1      H27B          -36.5669097353      -25.3875886945       -0.1116750000  MEMB      158             0.0000000000
     19072       158  CHL1      H27C          -36.9621953585      -23.9831176558       -1.0810250000  MEMB      158             0.0000000000
     19073       159  CHL1      C3            -53.7301785217       -0.0262866889      -17.2911650000  MEMB      159             0.0000000000
     19074       159  CHL1      H3            -54.7840578026        0.2000205882      -17.0220050000  MEMB      159             0.0000000000
     19075       159  CHL1      O3            -53.5717768783       -0.1033702461      -18.7088350000  MEMB      159             0.0000000000
     19076       159  CHL1      H3'           -54.1140917460       -0.8862797625      -18.8294150000  MEMB      159             0.0000000000
     19077       159  CHL1      C4            -52.8149142353        1.1921132978      -16.9201250000  MEMB      159             0.0000000000
     19078       159  CHL1      H4A           -51.8367848055        1.0406034782      -17.4247450000  MEMB      159             0.0000000000
     19079       159  CHL1      H4B           -53.2485903951        2.1415342915      -17.3007150000  MEMB      159             0.0000000000
     19080       159  CHL1      C5            -52.6699621772        1.3498934124      -15.4845150000  MEMB      159             0.0000000000
     19081       159  CHL1      C6            -52.9974045200        2.4910205964      -14.8920550000  MEMB      159             0.0000000000
     19082       159  CHL1      H6            -53.4456428120        3.3319582992      -15.4415050000  MEMB      159             0.0000000000
     19083       159  CHL1      C7            -52.9571994931        2.5543796992      -13.4203350000  MEMB      159             0.0000000000
     19084       159  CHL1      H7A           -52.4267920103        3.4761800511      -13.0989650000  MEMB      159             0.0000000000
     19085       159  CHL1      H7B           -53.9947578170        2.4948995092      -13.0275850000  MEMB      159             0.0000000000
     19086       159  CHL1      C8            -52.0791499998        1.4507802199      -12.7138250000  MEMB      159             0.0000000000
     19087       159  CHL1      H8            -51.0128741072        1.6272386474      -12.9711950000  MEMB      159             0.0000000000
     19088       159  CHL1      C14           -52.1425126319        1.6352412871      -11.2660050000  MEMB      159             0.0000000000
     19089       159  CHL1      H14           -53.2054285632        1.6761315223      -10.9452950000  MEMB      159             0.0000000000
     19090       159  CHL1      C15           -51.8058048575        3.0092920182      -10.6321850000  MEMB      159             0.0000000000
     19091       159  CHL1      H15A          -50.7986283460        3.2728807800      -11.0200650000  MEMB      159             0.0000000000
     19092       159  CHL1      H15B          -52.6377509170        3.7023290191      -10.8809250000  MEMB      159             0.0000000000
     19093       159  CHL1      C16           -51.7567381526        2.7134958650       -9.0946250000  MEMB      159             0.0000000000
     19094       159  CHL1      H16A          -50.8278411359        3.0514201284       -8.5874050000  MEMB      159             0.0000000000
     19095       159  CHL1      H16B          -52.6528119816        3.1604572129       -8.6133850000  MEMB      159             0.0000000000
     19096       159  CHL1      C17           -51.9324815799        1.1760855322       -8.9534050000  MEMB      159             0.0000000000
     19097       159  CHL1      H17           -53.0234945990        0.9933139776       -9.0563750000  MEMB      159             0.0000000000
     19098       159  CHL1      C13           -51.5087492141        0.5549269487      -10.3492250000  MEMB      159             0.0000000000
     19099       159  CHL1      C18           -50.0167882896        0.5025704197      -10.4284750000  MEMB      159             0.0000000000
     19100       159  CHL1      H18A          -49.7272812875        0.5013862472      -11.5010950000  MEMB      159             0.0000000000
     19101       159  CHL1      H18B          -49.5350046159        1.4422131841      -10.0831350000  MEMB      159             0.0000000000
     19102       159  CHL1      H18C          -49.6193923949       -0.4258266173       -9.9653450000  MEMB      159             0.0000000000
     19103       159  CHL1      C12           -52.1015957291       -0.8208518126      -10.8385450000  MEMB      159             0.0000000000
     19104       159  CHL1      H12A          -51.6035079015       -1.6534089725      -10.2971750000  MEMB      159             0.0000000000
     19105       159  CHL1      H12B          -53.1866769257       -0.8171367253      -10.5999650000  MEMB      159             0.0000000000
     19106       159  CHL1      C11           -51.8690177864       -1.0172900573      -12.3457250000  MEMB      159             0.0000000000
     19107       159  CHL1      H11A          -50.7738629539       -0.8394493020      -12.4033450000  MEMB      159             0.0000000000
     19108       159  CHL1      H11B          -52.2088412486       -1.9856070760      -12.7714050000  MEMB      159             0.0000000000
     19109       159  CHL1      C9            -52.5136699050        0.1570538908      -13.1449850000  MEMB      159             0.0000000000
     19110       159  CHL1      H9            -53.6171732246        0.1247047246      -13.0202450000  MEMB      159             0.0000000000
     19111       159  CHL1      C10           -52.3629310519        0.0007963855      -14.6993050000  MEMB      159             0.0000000000
     19112       159  CHL1      C19           -50.8345074204       -0.4016880575      -14.9396250000  MEMB      159             0.0000000000
     19113       159  CHL1      H19A          -50.1505292162        0.4493930040      -14.7343650000  MEMB      159             0.0000000000
     19114       159  CHL1      H19B          -50.5990426207       -1.3727083018      -14.4538250000  MEMB      159             0.0000000000
     19115       159  CHL1      H19C          -50.7664960530       -0.5431215179      -16.0394850000  MEMB      159             0.0000000000
     19116       159  CHL1      C1            -53.2784223395       -1.2137217754      -15.1456150000  MEMB      159             0.0000000000
     19117       159  CHL1      H1A           -52.8184221418       -2.1657684179      -14.8045250000  MEMB      159             0.0000000000
     19118       159  CHL1      H1B           -54.2886501879       -1.0435747667      -14.7157150000  MEMB      159             0.0000000000
     19119       159  CHL1      C2            -53.3108676329       -1.3414048982      -16.6691650000  MEMB      159             0.0000000000
     19120       159  CHL1      H2A           -54.0229826345       -2.1681837060      -16.8780450000  MEMB      159             0.0000000000
     19121       159  CHL1      H2B           -52.3827438895       -1.7597874586      -17.1139850000  MEMB      159             0.0000000000
     19122       159  CHL1      C20           -51.3174111003        0.5703748834       -7.6782350000  MEMB      159             0.0000000000
     19123       159  CHL1      H20           -50.2092822773        0.6137156291       -7.6112650000  MEMB      159             0.0000000000
     19124       159  CHL1      C21           -51.8785448989       -0.8037313592       -7.5408950000  MEMB      159             0.0000000000
     19125       159  CHL1      H21A          -52.9854046332       -0.7993291095       -7.6366150000  MEMB      159             0.0000000000
     19126       159  CHL1      H21B          -51.6006502292       -1.2985826571       -6.5857950000  MEMB      159             0.0000000000
     19127       159  CHL1      H21C          -51.4731551996       -1.4990541462       -8.3067450000  MEMB      159             0.0000000000
     19128       159  CHL1      C22           -51.5784510850        1.4342693226       -6.4072850000  MEMB      159             0.0000000000
     19129       159  CHL1      H22A          -51.0998837367        2.4157216129       -6.6123750000  MEMB      159             0.0000000000
     19130       159  CHL1      H22B          -52.6682152758        1.6358708484       -6.4852750000  MEMB      159             0.0000000000
     19131       159  CHL1      C23           -51.2314138267        0.7782974330       -5.0159150000  MEMB      159             0.0000000000
     19132       159  CHL1      H23A          -52.0593084088        0.0569931435       -4.8466850000  MEMB      159             0.0000000000
     19133       159  CHL1      H23B          -50.2484782003        0.2643732210       -4.9524050000  MEMB      159             0.0000000000
     19134       159  CHL1      C24           -51.1710056512        1.9551204884       -4.0001750000  MEMB      159             0.0000000000
     19135       159  CHL1      H24A          -50.1284225175        2.3265666565       -4.0969550000  MEMB      159             0.0000000000
     19136       159  CHL1      H24B          -51.9405475430        2.7462657654       -4.1275650000  MEMB      159             0.0000000000
     19137       159  CHL1      C25           -51.1939423133        1.3997905893       -2.5847650000  MEMB      159             0.0000000000
     19138       159  CHL1      H25           -50.6461419453        0.4423838266       -2.7174950000  MEMB      159             0.0000000000
     19139       159  CHL1      C26           -50.5681725749        2.3497526775       -1.6808050000  MEMB      159             0.0000000000
     19140       159  CHL1      H26A          -49.5035583697        2.4714818039       -1.9741950000  MEMB      159             0.0000000000
     19141       159  CHL1      H26B          -51.1111318465        3.3057431826       -1.8408350000  MEMB      159             0.0000000000
     19142       159  CHL1      H26C          -50.6844417516        2.0692607019       -0.6120950000  MEMB      159             0.0000000000
     19143       159  CHL1      C27           -52.6213462746        1.1922389519       -2.1182650000  MEMB      159             0.0000000000
     19144       159  CHL1      H27A          -53.0721913329        0.4354801618       -2.7952950000  MEMB      159             0.0000000000
     19145       159  CHL1      H27B          -52.6786910263        0.7404864817       -1.1048750000  MEMB      159             0.0000000000
     19146       159  CHL1      H27C          -53.1594389273        2.1603652232       -2.2049850000  MEMB      159             0.0000000000
     19147       160  CHL1      C3             42.9381032589       28.6993125198      -17.3527050000  MEMB      160             0.0000000000
     19148       160  CHL1      H3             43.8301642387       28.0371726069      -17.3634950000  MEMB      160             0.0000000000
     19149       160  CHL1      O3             42.6558301411       28.9917786802      -18.6472950000  MEMB      160             0.0000000000
     19150       160  CHL1      H3'            41.9500662720       29.6183083205      -18.4713450000  MEMB      160             0.0000000000
     19151       160  CHL1      C4             41.7575783217       28.1161487596      -16.5889850000  MEMB      160             0.0000000000
     19152       160  CHL1      H4A            40.9197720058       28.8033153871      -16.8343550000  MEMB      160             0.0000000000
     19153       160  CHL1      H4B            41.6140325745       27.1176296010      -17.0544750000  MEMB      160             0.0000000000
     19154       160  CHL1      C5             42.1297679629       27.8567709872      -15.1441350000  MEMB      160             0.0000000000
     19155       160  CHL1      C6             42.0551488490       26.6167670626      -14.6280350000  MEMB      160             0.0000000000
     19156       160  CHL1      H6             41.6642513932       25.8115155297      -15.2673850000  MEMB      160             0.0000000000
     19157       160  CHL1      C7             42.3395579083       26.3604967563      -13.1465750000  MEMB      160             0.0000000000
     19158       160  CHL1      H7A            41.5627454539       25.6487471824      -12.7940450000  MEMB      160             0.0000000000
     19159       160  CHL1      H7B            43.3339726047       25.9520292812      -12.8661950000  MEMB      160             0.0000000000
     19160       160  CHL1      C8             42.2550967830       27.6222565534      -12.2538450000  MEMB      160             0.0000000000
     19161       160  CHL1      H8             41.1961075087       27.9579406685      -12.2410550000  MEMB      160             0.0000000000
     19162       160  CHL1      C14            42.8011297670       27.3404245019      -10.9035450000  MEMB      160             0.0000000000
     19163       160  CHL1      H14            43.7602643143       26.8053472733      -11.0711250000  MEMB      160             0.0000000000
     19164       160  CHL1      C15            41.9681047319       26.3705800951       -9.9489050000  MEMB      160             0.0000000000
     19165       160  CHL1      H15A           40.9205036916       26.7399594476       -9.9286450000  MEMB      160             0.0000000000
     19166       160  CHL1      H15B           42.1634470375       25.3462787306      -10.3322850000  MEMB      160             0.0000000000
     19167       160  CHL1      C16            42.7357105261       26.5307785505       -8.6396450000  MEMB      160             0.0000000000
     19168       160  CHL1      H16A           41.9722517034       26.7807506790       -7.8722050000  MEMB      160             0.0000000000
     19169       160  CHL1      H16B           43.3013911854       25.5856088547       -8.4947850000  MEMB      160             0.0000000000
     19170       160  CHL1      C17            43.6377097086       27.8566392960       -8.7057150000  MEMB      160             0.0000000000
     19171       160  CHL1      H17            44.6356760767       27.4262718249       -8.9362650000  MEMB      160             0.0000000000
     19172       160  CHL1      C13            43.1411390188       28.5446611613      -10.0024750000  MEMB      160             0.0000000000
     19173       160  CHL1      C18            41.9082806912       29.3458452003       -9.4828750000  MEMB      160             0.0000000000
     19174       160  CHL1      H18A           42.2428133164       30.1952384456       -8.8496750000  MEMB      160             0.0000000000
     19175       160  CHL1      H18B           41.2602293915       29.7780995500      -10.2750250000  MEMB      160             0.0000000000
     19176       160  CHL1      H18C           41.2054556602       28.7343519702       -8.8775350000  MEMB      160             0.0000000000
     19177       160  CHL1      C12            44.0455558736       29.4920480665      -10.7455550000  MEMB      160             0.0000000000
     19178       160  CHL1      H12A           44.3411551503       30.3411508519      -10.0928950000  MEMB      160             0.0000000000
     19179       160  CHL1      H12B           45.0289168145       28.9831568104      -10.8369750000  MEMB      160             0.0000000000
     19180       160  CHL1      C11            43.4215045943       29.9299081565      -12.0773550000  MEMB      160             0.0000000000
     19181       160  CHL1      H11A           42.4609445790       30.4466649255      -11.8661150000  MEMB      160             0.0000000000
     19182       160  CHL1      H11B           44.0785928124       30.5987596507      -12.6733350000  MEMB      160             0.0000000000
     19183       160  CHL1      C9             43.0773633466       28.7020139590      -12.9315250000  MEMB      160             0.0000000000
     19184       160  CHL1      H9             44.0485194447       28.1728672292      -13.0373050000  MEMB      160             0.0000000000
     19185       160  CHL1      C10            42.5365082098       29.0768415346      -14.3731050000  MEMB      160             0.0000000000
     19186       160  CHL1      C19            41.3998790923       30.1279733607      -14.2588350000  MEMB      160             0.0000000000
     19187       160  CHL1      H19A           40.7160833248       30.0813899529      -15.1332350000  MEMB      160             0.0000000000
     19188       160  CHL1      H19B           40.7121187076       29.7446798873      -13.4750050000  MEMB      160             0.0000000000
     19189       160  CHL1      H19C           41.7753088123       31.1246335937      -13.9425650000  MEMB      160             0.0000000000
     19190       160  CHL1      C1             43.7160076687       29.7002239247      -15.1926850000  MEMB      160             0.0000000000
     19191       160  CHL1      H1A            43.9805217471       30.6475477041      -14.6760450000  MEMB      160             0.0000000000
     19192       160  CHL1      H1B            44.5912899855       29.0224727030      -15.0986050000  MEMB      160             0.0000000000
     19193       160  CHL1      C2             43.3872560038       29.9768485874      -16.6459550000  MEMB      160             0.0000000000
     19194       160  CHL1      H2A            44.3231601898       30.4107586273      -17.0584250000  MEMB      160             0.0000000000
     19195       160  CHL1      H2B            42.6277732125       30.7875259330      -16.6639650000  MEMB      160             0.0000000000
     19196       160  CHL1      C20            43.7973676078       28.5604099350       -7.3368050000  MEMB      160             0.0000000000
     19197       160  CHL1      H20            42.8064102551       29.0217791433       -7.1381350000  MEMB      160             0.0000000000
     19198       160  CHL1      C21            44.9454405656       29.6165127170       -7.2814950000  MEMB      160             0.0000000000
     19199       160  CHL1      H21A           45.7681141986       29.3132221983       -6.5991850000  MEMB      160             0.0000000000
     19200       160  CHL1      H21B           44.6971904356       30.6343552483       -6.9117950000  MEMB      160             0.0000000000
     19201       160  CHL1      H21C           45.3395121000       29.6876026613       -8.3178250000  MEMB      160             0.0000000000
     19202       160  CHL1      C22            43.9389371169       27.5436181419       -6.0820550000  MEMB      160             0.0000000000
     19203       160  CHL1      H22A           43.3767361161       26.5855635384       -6.0623450000  MEMB      160             0.0000000000
     19204       160  CHL1      H22B           45.0054798257       27.2330511052       -6.1009550000  MEMB      160             0.0000000000
     19205       160  CHL1      C23            43.7174851352       28.2920980370       -4.8092650000  MEMB      160             0.0000000000
     19206       160  CHL1      H23A           44.5664318503       28.9870992933       -4.6343750000  MEMB      160             0.0000000000
     19207       160  CHL1      H23B           42.8269994100       28.9339303658       -4.9807250000  MEMB      160             0.0000000000
     19208       160  CHL1      C24            43.4610948985       27.3226026701       -3.6475050000  MEMB      160             0.0000000000
     19209       160  CHL1      H24A           42.4489425934       26.9403692840       -3.9000450000  MEMB      160             0.0000000000
     19210       160  CHL1      H24B           44.2395095162       26.5355561338       -3.7420050000  MEMB      160             0.0000000000
     19211       160  CHL1      C25            43.3750682972       28.0161863585       -2.3176550000  MEMB      160             0.0000000000
     19212       160  CHL1      H25            42.4826717475       28.6779043793       -2.3269850000  MEMB      160             0.0000000000
     19213       160  CHL1      C26            43.1966880862       27.0192100002       -1.1351950000  MEMB      160             0.0000000000
     19214       160  CHL1      H26A           43.1380966033       27.5793349036       -0.1775150000  MEMB      160             0.0000000000
     19215       160  CHL1      H26B           42.3815550777       26.2912416369       -1.3350850000  MEMB      160             0.0000000000
     19216       160  CHL1      H26C           44.1058948711       26.4050636105       -0.9606050000  MEMB      160             0.0000000000
     19217       160  CHL1      C27            44.6983871669       28.8352644195       -1.9721450000  MEMB      160             0.0000000000
     19218       160  CHL1      H27A           44.7561278128       28.9334160268       -0.8669950000  MEMB      160             0.0000000000
     19219       160  CHL1      H27B           45.6294368088       28.3419382686       -2.3243950000  MEMB      160             0.0000000000
     19220       160  CHL1      H27C           44.6292210344       29.8338963793       -2.4540950000  MEMB      160             0.0000000000
     19221       161  CHL1      C3             39.6359007834       -8.5105072605      -17.2889000000  MEMB      161             0.0000000000
     19222       161  CHL1      H3             39.5622470526       -9.5703572901      -16.9639400000  MEMB      161             0.0000000000
     19223       161  CHL1      O3             39.6823440166       -8.4850712195      -18.7111000000  MEMB      161             0.0000000000
     19224       161  CHL1      H3'            40.0679653719       -7.6268510083      -18.9017800000  MEMB      161             0.0000000000
     19225       161  CHL1      C4             38.3364605125       -7.7399645920      -16.9203100000  MEMB      161             0.0000000000
     19226       161  CHL1      H4A            38.3045752326       -6.8266541084      -17.5521100000  MEMB      161             0.0000000000
     19227       161  CHL1      H4B            37.4574405119       -8.3008398571      -17.3037900000  MEMB      161             0.0000000000
     19228       161  CHL1      C5             38.1572209549       -7.2915650105      -15.5159000000  MEMB      161             0.0000000000
     19229       161  CHL1      C6             36.9940848591       -7.5833839964      -14.8397700000  MEMB      161             0.0000000000
     19230       161  CHL1      H6             36.1707018319       -7.9611803165      -15.4637200000  MEMB      161             0.0000000000
     19231       161  CHL1      C7             36.7272024731       -7.2164171689      -13.4168600000  MEMB      161             0.0000000000
     19232       161  CHL1      H7A            35.8065985776       -6.5952619160      -13.3858900000  MEMB      161             0.0000000000
     19233       161  CHL1      H7B            36.4410659024       -8.1209479851      -12.8387100000  MEMB      161             0.0000000000
     19234       161  CHL1      C8             37.8818373352       -6.4668895075      -12.7322500000  MEMB      161             0.0000000000
     19235       161  CHL1      H8             37.8188502785       -5.4013738965      -13.0405400000  MEMB      161             0.0000000000
     19236       161  CHL1      C14            37.8534220442       -6.5918283415      -11.3132500000  MEMB      161             0.0000000000
     19237       161  CHL1      H14            38.2302970218       -7.6282817498      -11.1789600000  MEMB      161             0.0000000000
     19238       161  CHL1      C15            36.4860217313       -6.4405754578      -10.6016200000  MEMB      161             0.0000000000
     19239       161  CHL1      H15A           35.9279902514       -5.5703342832      -11.0085600000  MEMB      161             0.0000000000
     19240       161  CHL1      H15B           35.8651721643       -7.3616743847      -10.6228800000  MEMB      161             0.0000000000
     19241       161  CHL1      C16            36.8389773636       -6.0654460611       -9.1913900000  MEMB      161             0.0000000000
     19242       161  CHL1      H16A           36.4136718488       -5.0465075625       -9.0680100000  MEMB      161             0.0000000000
     19243       161  CHL1      H16B           36.5498987370       -6.8829505796       -8.4968100000  MEMB      161             0.0000000000
     19244       161  CHL1      C17            38.3782183392       -5.9888314791       -9.1678600000  MEMB      161             0.0000000000
     19245       161  CHL1      H17            38.7526344146       -7.0002237562       -8.9010000000  MEMB      161             0.0000000000
     19246       161  CHL1      C13            38.8072710667       -5.7144128390      -10.6101800000  MEMB      161             0.0000000000
     19247       161  CHL1      C18            38.7937027818       -4.2107456376      -10.8999500000  MEMB      161             0.0000000000
     19248       161  CHL1      H18A           39.1763769230       -4.0563585185      -11.9314800000  MEMB      161             0.0000000000
     19249       161  CHL1      H18B           37.7769122056       -3.7805192810      -11.0239000000  MEMB      161             0.0000000000
     19250       161  CHL1      H18C           39.4085864190       -3.6163705944      -10.1907700000  MEMB      161             0.0000000000
     19251       161  CHL1      C12            40.1837867756       -6.2118034265      -10.9741900000  MEMB      161             0.0000000000
     19252       161  CHL1      H12A           40.9915295239       -5.6607664239      -10.4467200000  MEMB      161             0.0000000000
     19253       161  CHL1      H12B           40.3475283703       -7.2644737136      -10.6589200000  MEMB      161             0.0000000000
     19254       161  CHL1      C11            40.4723562925       -6.3096508931      -12.4851900000  MEMB      161             0.0000000000
     19255       161  CHL1      H11A           40.7651655460       -5.3182982311      -12.8923800000  MEMB      161             0.0000000000
     19256       161  CHL1      H11B           41.3618429085       -6.9750498248      -12.4655300000  MEMB      161             0.0000000000
     19257       161  CHL1      C9             39.2949907513       -6.9571352365      -13.2735100000  MEMB      161             0.0000000000
     19258       161  CHL1      H9             39.3668731638       -8.0310541829      -12.9981000000  MEMB      161             0.0000000000
     19259       161  CHL1      C10            39.4929006781       -6.8270904312      -14.8151800000  MEMB      161             0.0000000000
     19260       161  CHL1      C19            39.7703174681       -5.3664741747      -15.2927800000  MEMB      161             0.0000000000
     19261       161  CHL1      H19A           40.6704954511       -4.9810534230      -14.7679600000  MEMB      161             0.0000000000
     19262       161  CHL1      H19B           39.9952530222       -5.4161901622      -16.3796400000  MEMB      161             0.0000000000
     19263       161  CHL1      H19C           38.9842938229       -4.5880750121      -15.1899200000  MEMB      161             0.0000000000
     19264       161  CHL1      C1             40.8153324825       -7.6065917483      -15.1581100000  MEMB      161             0.0000000000
     19265       161  CHL1      H1A            41.7361028692       -7.1296943717      -14.7592700000  MEMB      161             0.0000000000
     19266       161  CHL1      H1B            40.8662185441       -8.5966446869      -14.6565800000  MEMB      161             0.0000000000
     19267       161  CHL1      C2             40.9231865032       -7.8855167476      -16.6105400000  MEMB      161             0.0000000000
     19268       161  CHL1      H2A            41.7235693653       -8.6423063546      -16.7554300000  MEMB      161             0.0000000000
     19269       161  CHL1      H2B            41.1849086200       -7.0347721168      -17.2754100000  MEMB      161             0.0000000000
     19270       161  CHL1      C20            38.9178685184       -5.1173627438       -7.9679300000  MEMB      161             0.0000000000
     19271       161  CHL1      H20            38.5205390445       -4.1226112320       -8.2627600000  MEMB      161             0.0000000000
     19272       161  CHL1      C21            40.4850299652       -5.1124508903       -7.9039100000  MEMB      161             0.0000000000
     19273       161  CHL1      H21A           40.7778253806       -6.1780344367       -8.0185700000  MEMB      161             0.0000000000
     19274       161  CHL1      H21B           40.7285893148       -4.7965391417       -6.8670000000  MEMB      161             0.0000000000
     19275       161  CHL1      H21C           40.8550299904       -4.3599694542       -8.6327300000  MEMB      161             0.0000000000
     19276       161  CHL1      C22            38.4269128665       -5.4988282168       -6.5616000000  MEMB      161             0.0000000000
     19277       161  CHL1      H22A           38.9878310585       -4.8822496846       -5.8270800000  MEMB      161             0.0000000000
     19278       161  CHL1      H22B           37.3675324560       -5.1642503491       -6.5717700000  MEMB      161             0.0000000000
     19279       161  CHL1      C23            38.6518423296       -6.9426579538       -6.0125000000  MEMB      161             0.0000000000
     19280       161  CHL1      H23A           38.3209907995       -7.6536027527       -6.7995300000  MEMB      161             0.0000000000
     19281       161  CHL1      H23B           39.7342442463       -7.1841862818       -5.9463300000  MEMB      161             0.0000000000
     19282       161  CHL1      C24            37.9347558698       -7.2294724611       -4.7345600000  MEMB      161             0.0000000000
     19283       161  CHL1      H24A           36.9938526111       -6.6415097021       -4.7923100000  MEMB      161             0.0000000000
     19284       161  CHL1      H24B           37.5239933045       -8.2606362529       -4.7824300000  MEMB      161             0.0000000000
     19285       161  CHL1      C25            38.6680847465       -6.7132584366       -3.4716500000  MEMB      161             0.0000000000
     19286       161  CHL1      H25            38.9802453791       -5.6869095273       -3.7605900000  MEMB      161             0.0000000000
     19287       161  CHL1      C26            37.8812118837       -6.4869433677       -2.1887000000  MEMB      161             0.0000000000
     19288       161  CHL1      H26A           38.4227034243       -6.0232348235       -1.3365900000  MEMB      161             0.0000000000
     19289       161  CHL1      H26B           37.0471863642       -5.7586913113       -2.2801400000  MEMB      161             0.0000000000
     19290       161  CHL1      H26C           37.5856559388       -7.5044303785       -1.8545200000  MEMB      161             0.0000000000
     19291       161  CHL1      C27            39.9027759162       -7.5308908111       -2.9430200000  MEMB      161             0.0000000000
     19292       161  CHL1      H27A           40.4414978746       -7.0986229398       -2.0728200000  MEMB      161             0.0000000000
     19293       161  CHL1      H27B           39.5699337086       -8.5480543756       -2.6448200000  MEMB      161             0.0000000000
     19294       161  CHL1      H27C           40.5603329391       -7.7213383129       -3.8180500000  MEMB      161             0.0000000000
     19295       162  CHL1      C3            -39.4516974786       42.9205151506      -17.3220050000  MEMB      162             0.0000000000
     19296       162  CHL1      H3            -38.4524354692       43.3166202012      -17.0411250000  MEMB      162             0.0000000000
     19297       162  CHL1      O3            -39.4995899214       42.6364144494      -18.6779950000  MEMB      162             0.0000000000
     19298       162  CHL1      H3'           -38.6937773412       42.1197262725      -18.7508350000  MEMB      162             0.0000000000
     19299       162  CHL1      C4            -39.8409851018       41.6997913104      -16.4254350000  MEMB      162             0.0000000000
     19300       162  CHL1      H4A           -40.8146528934       41.4225849899      -16.8830950000  MEMB      162             0.0000000000
     19301       162  CHL1      H4B           -39.1318753167       40.8522532129      -16.5401250000  MEMB      162             0.0000000000
     19302       162  CHL1      C5            -39.8801811436       42.1126014808      -14.9700250000  MEMB      162             0.0000000000
     19303       162  CHL1      C6            -39.0707902262       41.5960138168      -14.0490450000  MEMB      162             0.0000000000
     19304       162  CHL1      H6            -38.3551262515       40.8224293927      -14.3643050000  MEMB      162             0.0000000000
     19305       162  CHL1      C7            -39.0520214012       42.0580083172      -12.6531850000  MEMB      162             0.0000000000
     19306       162  CHL1      H7A           -38.8192053679       41.1998959859      -11.9870350000  MEMB      162             0.0000000000
     19307       162  CHL1      H7B           -38.2383206045       42.8017322841      -12.5150250000  MEMB      162             0.0000000000
     19308       162  CHL1      C8            -40.4084155729       42.6187713616      -12.2193750000  MEMB      162             0.0000000000
     19309       162  CHL1      H8            -41.1902345237       41.8324767945      -12.1500650000  MEMB      162             0.0000000000
     19310       162  CHL1      C14           -40.2801559744       43.2639372624      -10.8375650000  MEMB      162             0.0000000000
     19311       162  CHL1      H14           -39.4587483790       43.9892096236      -11.0208650000  MEMB      162             0.0000000000
     19312       162  CHL1      C15           -39.8568092124       42.4400723182       -9.5932950000  MEMB      162             0.0000000000
     19313       162  CHL1      H15A          -40.5395447076       41.5638170195       -9.6124550000  MEMB      162             0.0000000000
     19314       162  CHL1      H15B          -38.7777054272       42.1764422922       -9.5746650000  MEMB      162             0.0000000000
     19315       162  CHL1      C16           -40.1956884914       43.3690039880       -8.3873950000  MEMB      162             0.0000000000
     19316       162  CHL1      H16A          -40.6976321334       42.6998134722       -7.6562750000  MEMB      162             0.0000000000
     19317       162  CHL1      H16B          -39.2308417111       43.7183975730       -7.9615750000  MEMB      162             0.0000000000
     19318       162  CHL1      C17           -40.9609553420       44.5446065529       -8.9271450000  MEMB      162             0.0000000000
     19319       162  CHL1      H17           -40.1767009795       45.3047778665       -9.1306050000  MEMB      162             0.0000000000
     19320       162  CHL1      C13           -41.5610073079       44.0754546599      -10.3108950000  MEMB      162             0.0000000000
     19321       162  CHL1      C18           -42.7434787878       43.0940632882      -10.1200350000  MEMB      162             0.0000000000
     19322       162  CHL1      H18A          -43.1068051578       42.4949658386      -10.9822350000  MEMB      162             0.0000000000
     19323       162  CHL1      H18B          -42.6244649456       42.2703785143       -9.3840350000  MEMB      162             0.0000000000
     19324       162  CHL1      H18C          -43.5425755834       43.6918043135       -9.6316950000  MEMB      162             0.0000000000
     19325       162  CHL1      C12           -41.9895283529       45.1107325242      -11.3653550000  MEMB      162             0.0000000000
     19326       162  CHL1      H12A          -42.8334351069       45.6649143848      -10.9016450000  MEMB      162             0.0000000000
     19327       162  CHL1      H12B          -41.1305867124       45.8153789802      -11.3640950000  MEMB      162             0.0000000000
     19328       162  CHL1      C11           -42.1562840548       44.5463625987      -12.6912650000  MEMB      162             0.0000000000
     19329       162  CHL1      H11A          -43.0384089766       43.8710984157      -12.6769950000  MEMB      162             0.0000000000
     19330       162  CHL1      H11B          -42.3787549986       45.2914813070      -13.4847550000  MEMB      162             0.0000000000
     19331       162  CHL1      C9            -40.9108651948       43.7221954651      -13.1844450000  MEMB      162             0.0000000000
     19332       162  CHL1      H9            -40.1010879878       44.4764417294      -13.0860250000  MEMB      162             0.0000000000
     19333       162  CHL1      C10           -40.9497313724       43.1536863403      -14.6827650000  MEMB      162             0.0000000000
     19334       162  CHL1      C19           -42.3178989040       42.4818839438      -14.8424150000  MEMB      162             0.0000000000
     19335       162  CHL1      H19A          -43.2148106401       43.1164405422      -14.6774550000  MEMB      162             0.0000000000
     19336       162  CHL1      H19B          -42.4968350118       42.1527365150      -15.8883450000  MEMB      162             0.0000000000
     19337       162  CHL1      H19C          -42.4962699806       41.6633131302      -14.1127250000  MEMB      162             0.0000000000
     19338       162  CHL1      C1            -40.7721733443       44.4276081967      -15.6101150000  MEMB      162             0.0000000000
     19339       162  CHL1      H1A           -41.7134097098       45.0069148882      -15.4969150000  MEMB      162             0.0000000000
     19340       162  CHL1      H1B           -39.9164603657       45.0217249851      -15.2239750000  MEMB      162             0.0000000000
     19341       162  CHL1      C2            -40.5646111332       43.9823571415      -17.0510750000  MEMB      162             0.0000000000
     19342       162  CHL1      H2A           -40.4660330057       44.8023196009      -17.7942250000  MEMB      162             0.0000000000
     19343       162  CHL1      H2B           -41.5282375733       43.4787446809      -17.2793850000  MEMB      162             0.0000000000
     19344       162  CHL1      C20           -41.8784840119       45.1929976026       -7.9184150000  MEMB      162             0.0000000000
     19345       162  CHL1      H20           -42.6905954515       44.4572969296       -7.7352850000  MEMB      162             0.0000000000
     19346       162  CHL1      C21           -42.6479767470       46.4314740754       -8.4961350000  MEMB      162             0.0000000000
     19347       162  CHL1      H21A          -42.7252669554       47.0899369873       -7.6046250000  MEMB      162             0.0000000000
     19348       162  CHL1      H21B          -43.6669288153       46.1714328352       -8.8545050000  MEMB      162             0.0000000000
     19349       162  CHL1      H21C          -42.0954582868       46.8918182654       -9.3429650000  MEMB      162             0.0000000000
     19350       162  CHL1      C22           -41.1822120374       45.4140556477       -6.5288050000  MEMB      162             0.0000000000
     19351       162  CHL1      H22A          -40.4059937563       44.7168103930       -6.1471550000  MEMB      162             0.0000000000
     19352       162  CHL1      H22B          -40.7581117306       46.4307318721       -6.3845350000  MEMB      162             0.0000000000
     19353       162  CHL1      C23           -42.3210083835       45.3710774335       -5.3644050000  MEMB      162             0.0000000000
     19354       162  CHL1      H23A          -43.1999022309       45.9838817864       -5.6582550000  MEMB      162             0.0000000000
     19355       162  CHL1      H23B          -42.7037013896       44.3435201689       -5.1855450000  MEMB      162             0.0000000000
     19356       162  CHL1      C24           -41.6196960655       45.8512678540       -4.0910750000  MEMB      162             0.0000000000
     19357       162  CHL1      H24A          -40.6052182424       45.4244964551       -3.9393450000  MEMB      162             0.0000000000
     19358       162  CHL1      H24B          -41.5921341882       46.9595264940       -4.1640550000  MEMB      162             0.0000000000
     19359       162  CHL1      C25           -42.4115745585       45.5868717216       -2.7844150000  MEMB      162             0.0000000000
     19360       162  CHL1      H25           -42.4551236970       44.4884477538       -2.6235350000  MEMB      162             0.0000000000
     19361       162  CHL1      C26           -41.6062757100       46.1225737045       -1.6066350000  MEMB      162             0.0000000000
     19362       162  CHL1      H26A          -42.0338105911       45.6262959151       -0.7092750000  MEMB      162             0.0000000000
     19363       162  CHL1      H26B          -40.5324609773       45.8438422739       -1.6661350000  MEMB      162             0.0000000000
     19364       162  CHL1      H26C          -41.8315006339       47.2103356349       -1.5876050000  MEMB      162             0.0000000000
     19365       162  CHL1      C27           -43.7565310943       46.2178534221       -2.8471650000  MEMB      162             0.0000000000
     19366       162  CHL1      H27A          -44.3033940086       45.9106731247       -3.7641750000  MEMB      162             0.0000000000
     19367       162  CHL1      H27B          -44.2057375858       45.8750039687       -1.8906150000  MEMB      162             0.0000000000
     19368       162  CHL1      H27C          -43.6117349894       47.3188105296       -2.8118450000  MEMB      162             0.0000000000
     19369       163  CHL1      C3             53.8489513954       54.9065790213      -17.3051250000  MEMB      163             0.0000000000
     19370       163  CHL1      H3             54.1000669418       55.9368111887      -16.9736450000  MEMB      163             0.0000000000
     19371       163  CHL1      O3             53.8726010046       54.7075097787      -18.6948750000  MEMB      163             0.0000000000
     19372       163  CHL1      H3'            53.2327115520       55.2740082738      -19.1321550000  MEMB      163             0.0000000000
     19373       163  CHL1      C4             54.7418210624       53.9366075507      -16.5735050000  MEMB      163             0.0000000000
     19374       163  CHL1      H4A            54.3793776051       52.9710895699      -16.9867050000  MEMB      163             0.0000000000
     19375       163  CHL1      H4B            55.7091424989       53.9437785277      -17.1198950000  MEMB      163             0.0000000000
     19376       163  CHL1      C5             54.6308781288       54.0864622669      -15.0472750000  MEMB      163             0.0000000000
     19377       163  CHL1      C6             55.7333835472       54.1843565817      -14.2601850000  MEMB      163             0.0000000000
     19378       163  CHL1      H6             56.7242350810       54.1413478314      -14.7359650000  MEMB      163             0.0000000000
     19379       163  CHL1      C7             55.6830306859       54.2281381664      -12.7830650000  MEMB      163             0.0000000000
     19380       163  CHL1      H7A            56.3570859367       53.4429482404      -12.3787750000  MEMB      163             0.0000000000
     19381       163  CHL1      H7B            56.1273606186       55.2028231345      -12.4883050000  MEMB      163             0.0000000000
     19382       163  CHL1      C8             54.2928174652       54.0300445053      -12.2303650000  MEMB      163             0.0000000000
     19383       163  CHL1      H8             54.1850035457       52.9254599572      -12.1796050000  MEMB      163             0.0000000000
     19384       163  CHL1      C14            54.1914167012       54.5053250814      -10.7567950000  MEMB      163             0.0000000000
     19385       163  CHL1      H14            54.1558027051       55.6155990525      -10.7382050000  MEMB      163             0.0000000000
     19386       163  CHL1      C15            55.2882302735       54.0825653723       -9.7750050000  MEMB      163             0.0000000000
     19387       163  CHL1      H15A           55.6915567083       53.0758850161      -10.0163650000  MEMB      163             0.0000000000
     19388       163  CHL1      H15B           56.1295706623       54.8053823041       -9.8381450000  MEMB      163             0.0000000000
     19389       163  CHL1      C16            54.6799739997       54.2026453520       -8.3714950000  MEMB      163             0.0000000000
     19390       163  CHL1      H16A           54.8008005983       53.2475517107       -7.8169450000  MEMB      163             0.0000000000
     19391       163  CHL1      H16B           55.2759576278       55.0170163558       -7.9068450000  MEMB      163             0.0000000000
     19392       163  CHL1      C17            53.2725662498       54.6739165225       -8.6231650000  MEMB      163             0.0000000000
     19393       163  CHL1      H17            53.4126788285       55.7651734032       -8.7776150000  MEMB      163             0.0000000000
     19394       163  CHL1      C13            52.8902828922       54.1458730824      -10.0224350000  MEMB      163             0.0000000000
     19395       163  CHL1      C18            52.7723584646       52.5456993051       -9.9946950000  MEMB      163             0.0000000000
     19396       163  CHL1      H18A           53.6780393240       52.0897230438       -9.5406750000  MEMB      163             0.0000000000
     19397       163  CHL1      H18B           51.9592663479       52.2780682572       -9.2864750000  MEMB      163             0.0000000000
     19398       163  CHL1      H18C           52.5438030420       52.2374007774      -11.0373150000  MEMB      163             0.0000000000
     19399       163  CHL1      C12            51.8082928153       54.8000268053      -10.8169250000  MEMB      163             0.0000000000
     19400       163  CHL1      H12A           50.8626206859       54.2986321154      -10.5191750000  MEMB      163             0.0000000000
     19401       163  CHL1      H12B           51.7053716780       55.8937412309      -10.6510450000  MEMB      163             0.0000000000
     19402       163  CHL1      C11            51.8532041927       54.4825454158      -12.3619950000  MEMB      163             0.0000000000
     19403       163  CHL1      H11A           51.5351698613       53.4185398341      -12.3945950000  MEMB      163             0.0000000000
     19404       163  CHL1      H11B           51.0965682156       55.2276223931      -12.6885950000  MEMB      163             0.0000000000
     19405       163  CHL1      C9             53.1597730776       54.6813439042      -13.0655150000  MEMB      163             0.0000000000
     19406       163  CHL1      H9             53.3469159756       55.7762869706      -13.0860250000  MEMB      163             0.0000000000
     19407       163  CHL1      C10            53.1412552875       54.1510647382      -14.5665950000  MEMB      163             0.0000000000
     19408       163  CHL1      C19            52.5853901610       52.6853776557      -14.4975150000  MEMB      163             0.0000000000
     19409       163  CHL1      H19A           51.4880757198       52.7490002712      -14.3357350000  MEMB      163             0.0000000000
     19410       163  CHL1      H19B           52.8191658973       52.2163827867      -15.4771650000  MEMB      163             0.0000000000
     19411       163  CHL1      H19C           52.9560322244       52.0921421968      -13.6343650000  MEMB      163             0.0000000000
     19412       163  CHL1      C1             52.1765407405       54.9954544278      -15.4179850000  MEMB      163             0.0000000000
     19413       163  CHL1      H1A            51.1569743682       54.8583523954      -14.9984550000  MEMB      163             0.0000000000
     19414       163  CHL1      H1B            52.3781360306       56.0735843636      -15.2409950000  MEMB      163             0.0000000000
     19415       163  CHL1      C2             52.3307444928       54.6890461139      -16.8930250000  MEMB      163             0.0000000000
     19416       163  CHL1      H2A            51.7429065945       55.3742724014      -17.5405050000  MEMB      163             0.0000000000
     19417       163  CHL1      H2B            52.0812843795       53.6113531107      -16.9963150000  MEMB      163             0.0000000000
     19418       163  CHL1      C20            52.2957706941       54.4650429375       -7.4316150000  MEMB      163             0.0000000000
     19419       163  CHL1      H20            52.1417776335       53.3656131369       -7.4745550000  MEMB      163             0.0000000000
     19420       163  CHL1      C21            51.0128647996       55.2083553450       -7.4983250000  MEMB      163             0.0000000000
     19421       163  CHL1      H21A           50.4988038235       55.2430083361       -6.5140150000  MEMB      163             0.0000000000
     19422       163  CHL1      H21B           50.3707970637       54.7318900912       -8.2697250000  MEMB      163             0.0000000000
     19423       163  CHL1      H21C           51.1595270433       56.2575472951       -7.8329850000  MEMB      163             0.0000000000
     19424       163  CHL1      C22            52.8738264934       54.6647771216       -6.0142350000  MEMB      163             0.0000000000
     19425       163  CHL1      H22A           52.1358756302       54.3731423861       -5.2365950000  MEMB      163             0.0000000000
     19426       163  CHL1      H22B           53.6792406045       53.9405178926       -5.7670850000  MEMB      163             0.0000000000
     19427       163  CHL1      C23            53.1438984470       56.0838232221       -5.6280050000  MEMB      163             0.0000000000
     19428       163  CHL1      H23A           53.8729585746       56.4127756480       -6.3990950000  MEMB      163             0.0000000000
     19429       163  CHL1      H23B           52.1859868378       56.6421953703       -5.6984250000  MEMB      163             0.0000000000
     19430       163  CHL1      C24            53.5166541888       56.4413297282       -4.2766850000  MEMB      163             0.0000000000
     19431       163  CHL1      H24A           53.8201542684       57.5043287687       -4.1659750000  MEMB      163             0.0000000000
     19432       163  CHL1      H24B           52.6470159714       56.1614258246       -3.6444750000  MEMB      163             0.0000000000
     19433       163  CHL1      C25            54.7654399646       55.6521227186       -3.6454650000  MEMB      163             0.0000000000
     19434       163  CHL1      H25            54.5044391526       54.5723241108       -3.6302150000  MEMB      163             0.0000000000
     19435       163  CHL1      C26            55.9944559167       55.9196681780       -4.4773850000  MEMB      163             0.0000000000
     19436       163  CHL1      H26A           55.9464717028       55.7390315879       -5.5725550000  MEMB      163             0.0000000000
     19437       163  CHL1      H26B           56.1876655201       57.0101780192       -4.3891950000  MEMB      163             0.0000000000
     19438       163  CHL1      H26C           56.9251460034       55.4741332122       -4.0655350000  MEMB      163             0.0000000000
     19439       163  CHL1      C27            54.9566678930       56.0580653469       -2.1861850000  MEMB      163             0.0000000000
     19440       163  CHL1      H27A           56.0259063443       55.8600648173       -1.9584650000  MEMB      163             0.0000000000
     19441       163  CHL1      H27B           54.8422656610       57.1550483141       -2.0524850000  MEMB      163             0.0000000000
     19442       163  CHL1      H27C           54.3273227567       55.5291743479       -1.4388450000  MEMB      163             0.0000000000
     19443       164  CHL1      C3             48.0981981133      -42.7139277094      -17.3814300000  MEMB      164             0.0000000000
     19444       164  CHL1      H3             47.2751703081      -42.0322008264      -17.6850400000  MEMB      164             0.0000000000
     19445       164  CHL1      O3             48.6911192867      -42.9460972906      -18.6185700000  MEMB      164             0.0000000000
     19446       164  CHL1      H3'            48.7879027044      -42.0196591018      -18.8508500000  MEMB      164             0.0000000000
     19447       164  CHL1      C4             49.1587890396      -41.9470668142      -16.6234700000  MEMB      164             0.0000000000
     19448       164  CHL1      H4A            50.2149394498      -42.2724961968      -16.7373500000  MEMB      164             0.0000000000
     19449       164  CHL1      H4B            49.1241952556      -40.8619463222      -16.8593500000  MEMB      164             0.0000000000
     19450       164  CHL1      C5             48.8798896906      -42.0456340219      -15.1107400000  MEMB      164             0.0000000000
     19451       164  CHL1      C6             48.9574874220      -40.9628194937      -14.2678000000  MEMB      164             0.0000000000
     19452       164  CHL1      H6             49.1719272936      -39.9932015076      -14.7409300000  MEMB      164             0.0000000000
     19453       164  CHL1      C7             48.7267368533      -40.9749068404      -12.8412300000  MEMB      164             0.0000000000
     19454       164  CHL1      H7A            49.4681987441      -40.2829312944      -12.3876500000  MEMB      164             0.0000000000
     19455       164  CHL1      H7B            47.7813832341      -40.4397626775      -12.6083700000  MEMB      164             0.0000000000
     19456       164  CHL1      C8             48.8643865337      -42.3951899285      -12.1986500000  MEMB      164             0.0000000000
     19457       164  CHL1      H8             49.9538259128      -42.5990253546      -12.1218400000  MEMB      164             0.0000000000
     19458       164  CHL1      C14            48.2431520481      -42.3135241039      -10.7842600000  MEMB      164             0.0000000000
     19459       164  CHL1      H14            47.1514357860      -42.1794789179      -10.9408100000  MEMB      164             0.0000000000
     19460       164  CHL1      C15            48.6573918556      -41.2435712401       -9.7942800000  MEMB      164             0.0000000000
     19461       164  CHL1      H15A           49.7401321767      -41.0713701751       -9.9741400000  MEMB      164             0.0000000000
     19462       164  CHL1      H15B           48.1243949999      -40.2758860294       -9.9119100000  MEMB      164             0.0000000000
     19463       164  CHL1      C16            48.3314019658      -41.7568293248       -8.4185900000  MEMB      164             0.0000000000
     19464       164  CHL1      H16A           49.2336569104      -41.7110162332       -7.7719500000  MEMB      164             0.0000000000
     19465       164  CHL1      H16B           47.5161710698      -41.1945942282       -7.9150000000  MEMB      164             0.0000000000
     19466       164  CHL1      C17            47.8589218449      -43.2242167110       -8.6306200000  MEMB      164             0.0000000000
     19467       164  CHL1      H17            46.7704304332      -43.0684845141       -8.7895500000  MEMB      164             0.0000000000
     19468       164  CHL1      C13            48.3536112265      -43.6473775768      -10.0511200000  MEMB      164             0.0000000000
     19469       164  CHL1      C18            49.8608022327      -44.0152193455       -9.8914200000  MEMB      164             0.0000000000
     19470       164  CHL1      H18A           50.3384197908      -44.2697385067      -10.8616900000  MEMB      164             0.0000000000
     19471       164  CHL1      H18B           50.4609463583      -43.2300813727       -9.3837700000  MEMB      164             0.0000000000
     19472       164  CHL1      H18C           49.9434080530      -44.9506468031       -9.2977100000  MEMB      164             0.0000000000
     19473       164  CHL1      C12            47.5224472164      -44.6923045061      -10.8319400000  MEMB      164             0.0000000000
     19474       164  CHL1      H12A           47.5654031756      -45.6989881566      -10.3639200000  MEMB      164             0.0000000000
     19475       164  CHL1      H12B           46.4760962336      -44.3204241664      -10.8662200000  MEMB      164             0.0000000000
     19476       164  CHL1      C11            48.0071885347      -44.7648258130      -12.2815100000  MEMB      164             0.0000000000
     19477       164  CHL1      H11A           49.0178889475      -45.2258489515      -12.2647900000  MEMB      164             0.0000000000
     19478       164  CHL1      H11B           47.3812263118      -45.5630052142      -12.7347400000  MEMB      164             0.0000000000
     19479       164  CHL1      C9             48.0479933902      -43.4258606486      -13.0315700000  MEMB      164             0.0000000000
     19480       164  CHL1      H9             46.9999987514      -43.0719824420      -13.1354700000  MEMB      164             0.0000000000
     19481       164  CHL1      C10            48.5308454639      -43.4303017972      -14.4626300000  MEMB      164             0.0000000000
     19482       164  CHL1      C19            49.8811631452      -44.1996318553      -14.5292300000  MEMB      164             0.0000000000
     19483       164  CHL1      H19A           50.5097199641      -43.9638644744      -13.6439900000  MEMB      164             0.0000000000
     19484       164  CHL1      H19B           49.6496912177      -45.2862414306      -14.5260100000  MEMB      164             0.0000000000
     19485       164  CHL1      H19C           50.3997630032      -44.0101901276      -15.4933300000  MEMB      164             0.0000000000
     19486       164  CHL1      C1             47.3439414335      -44.0301588439      -15.3463000000  MEMB      164             0.0000000000
     19487       164  CHL1      H1A            47.0178930460      -45.0193266345      -14.9595700000  MEMB      164             0.0000000000
     19488       164  CHL1      H1B            46.4405540276      -43.3835225277      -15.3551400000  MEMB      164             0.0000000000
     19489       164  CHL1      C2             47.7517024603      -44.0731466326      -16.8242200000  MEMB      164             0.0000000000
     19490       164  CHL1      H2A            46.9735919279      -44.6128233619      -17.4052600000  MEMB      164             0.0000000000
     19491       164  CHL1      H2B            48.6211539632      -44.7533264875      -16.9496300000  MEMB      164             0.0000000000
     19492       164  CHL1      C20            48.1055635836      -44.2370513420       -7.3604300000  MEMB      164             0.0000000000
     19493       164  CHL1      H20            49.2086120721      -44.2200667302       -7.2288300000  MEMB      164             0.0000000000
     19494       164  CHL1      C21            47.6443289493      -45.6377322283       -7.6555500000  MEMB      164             0.0000000000
     19495       164  CHL1      H21A           47.6529318427      -46.2842353376       -6.7520600000  MEMB      164             0.0000000000
     19496       164  CHL1      H21B           48.3178329055      -46.1488716163       -8.3762800000  MEMB      164             0.0000000000
     19497       164  CHL1      H21C           46.5876880743      -45.7650684939       -7.9743300000  MEMB      164             0.0000000000
     19498       164  CHL1      C22            47.4662112030      -43.6635901530       -6.1269600000  MEMB      164             0.0000000000
     19499       164  CHL1      H22A           47.7918593794      -42.6132188369       -5.9688800000  MEMB      164             0.0000000000
     19500       164  CHL1      H22B           46.3767351428      -43.4890362408       -6.2569400000  MEMB      164             0.0000000000
     19501       164  CHL1      C23            47.6838122657      -44.4502745011       -4.8751100000  MEMB      164             0.0000000000
     19502       164  CHL1      H23A           47.5258438870      -45.5426640778       -5.0017900000  MEMB      164             0.0000000000
     19503       164  CHL1      H23B           48.7151075126      -44.3548446490       -4.4730700000  MEMB      164             0.0000000000
     19504       164  CHL1      C24            46.6286061607      -44.0019784738       -3.8151300000  MEMB      164             0.0000000000
     19505       164  CHL1      H24A           46.6753632362      -42.9132234033       -3.5989100000  MEMB      164             0.0000000000
     19506       164  CHL1      H24B           45.5798770672      -44.1347469317       -4.1570000000  MEMB      164             0.0000000000
     19507       164  CHL1      C25            46.7251664716      -44.7147462164       -2.4719600000  MEMB      164             0.0000000000
     19508       164  CHL1      H25            46.8168609028      -45.7906795986       -2.7332200000  MEMB      164             0.0000000000
     19509       164  CHL1      C26            48.1077821551      -44.3959142478       -1.8493600000  MEMB      164             0.0000000000
     19510       164  CHL1      H26A           48.1954543152      -44.8569969013       -0.8423700000  MEMB      164             0.0000000000
     19511       164  CHL1      H26B           48.9819392032      -44.6777396922       -2.4744500000  MEMB      164             0.0000000000
     19512       164  CHL1      H26C           48.0877193895      -43.3224504964       -1.5637100000  MEMB      164             0.0000000000
     19513       164  CHL1      C27            45.5103581049      -44.3862839868       -1.6149300000  MEMB      164             0.0000000000
     19514       164  CHL1      H27A           45.4922290570      -44.9819355601       -0.6772700000  MEMB      164             0.0000000000
     19515       164  CHL1      H27B           45.3866364993      -43.3122466543       -1.3591100000  MEMB      164             0.0000000000
     19516       164  CHL1      H27C           44.6242992268      -44.7819623940       -2.1559000000  MEMB      164             0.0000000000
     19517       165  CHL1      C3             39.8493704829       13.9807381749      -17.3281700000  MEMB      165             0.0000000000
     19518       165  CHL1      H3             40.6302839495       13.4869813551      -16.7111500000  MEMB      165             0.0000000000
     19519       165  CHL1      O3             40.1664331171       13.6308920251      -18.6718300000  MEMB      165             0.0000000000
     19520       165  CHL1      H3'            40.2550318970       12.6753343335      -18.6977200000  MEMB      165             0.0000000000
     19521       165  CHL1      C4             38.4711197681       13.5234261661      -17.0104400000  MEMB      165             0.0000000000
     19522       165  CHL1      H4A            37.7338645426       13.8855816209      -17.7585200000  MEMB      165             0.0000000000
     19523       165  CHL1      H4B            38.5628245499       12.4248609319      -17.1484700000  MEMB      165             0.0000000000
     19524       165  CHL1      C5             37.9304366232       13.9487092411      -15.6440800000  MEMB      165             0.0000000000
     19525       165  CHL1      C6             37.4998600699       13.0522119538      -14.8075200000  MEMB      165             0.0000000000
     19526       165  CHL1      H6             37.4444675179       11.9837592684      -15.0631200000  MEMB      165             0.0000000000
     19527       165  CHL1      C7             36.8640570008       13.4122989658      -13.4580400000  MEMB      165             0.0000000000
     19528       165  CHL1      H7A            35.8516962870       13.0124072640      -13.2354800000  MEMB      165             0.0000000000
     19529       165  CHL1      H7B            37.6317656941       13.0536454104      -12.7394900000  MEMB      165             0.0000000000
     19530       165  CHL1      C8             36.7867065712       14.8879751772      -13.1644800000  MEMB      165             0.0000000000
     19531       165  CHL1      H8             35.8289699151       15.2230520545      -13.6170100000  MEMB      165             0.0000000000
     19532       165  CHL1      C14            36.7400110181       15.1660120408      -11.7249000000  MEMB      165             0.0000000000
     19533       165  CHL1      H14            37.7657117793       14.8845552690      -11.4039000000  MEMB      165             0.0000000000
     19534       165  CHL1      C15            35.8139862600       14.2547818479      -10.8375500000  MEMB      165             0.0000000000
     19535       165  CHL1      H15A           34.9034343153       13.8477300113      -11.3269600000  MEMB      165             0.0000000000
     19536       165  CHL1      H15B           36.4470398177       13.3647006979      -10.6342800000  MEMB      165             0.0000000000
     19537       165  CHL1      C16            35.4742607547       15.1428689664       -9.5762700000  MEMB      165             0.0000000000
     19538       165  CHL1      H16A           34.3919317423       15.3811730783       -9.6544100000  MEMB      165             0.0000000000
     19539       165  CHL1      H16B           35.6675402129       14.4340894497       -8.7428500000  MEMB      165             0.0000000000
     19540       165  CHL1      C17            36.4183849662       16.3722587800       -9.7660000000  MEMB      165             0.0000000000
     19541       165  CHL1      H17            37.4141479830       16.0724111120       -9.3750200000  MEMB      165             0.0000000000
     19542       165  CHL1      C13            36.5214231411       16.5478149255      -11.3333900000  MEMB      165             0.0000000000
     19543       165  CHL1      C18            35.2431877668       17.1567711716      -11.9470200000  MEMB      165             0.0000000000
     19544       165  CHL1      H18A           35.1220889331       18.1478603071      -11.4598000000  MEMB      165             0.0000000000
     19545       165  CHL1      H18B           35.2884292390       17.2822158339      -13.0499900000  MEMB      165             0.0000000000
     19546       165  CHL1      H18C           34.3568369796       16.5492689816      -11.6648100000  MEMB      165             0.0000000000
     19547       165  CHL1      C12            37.6814420076       17.3988365803      -11.8601500000  MEMB      165             0.0000000000
     19548       165  CHL1      H12A           37.3532766934       18.4485317087      -11.7027500000  MEMB      165             0.0000000000
     19549       165  CHL1      H12B           38.6596728637       17.3136746610      -11.3404100000  MEMB      165             0.0000000000
     19550       165  CHL1      C11            37.9400051176       17.2087726262      -13.3547700000  MEMB      165             0.0000000000
     19551       165  CHL1      H11A           37.1518848014       17.7534254441      -13.9173900000  MEMB      165             0.0000000000
     19552       165  CHL1      H11B           38.9331998277       17.6650217942      -13.5540800000  MEMB      165             0.0000000000
     19553       165  CHL1      C9             37.9469519487       15.6972624098      -13.7607600000  MEMB      165             0.0000000000
     19554       165  CHL1      H9             38.8238716409       15.1498369152      -13.3537500000  MEMB      165             0.0000000000
     19555       165  CHL1      C10            38.0919249745       15.4257482490      -15.2984700000  MEMB      165             0.0000000000
     19556       165  CHL1      C19            36.9619174773       16.1185397197      -16.0597700000  MEMB      165             0.0000000000
     19557       165  CHL1      H19A           37.0599670211       16.0179558688      -17.1618500000  MEMB      165             0.0000000000
     19558       165  CHL1      H19B           35.9658148403       15.6878453567      -15.8218500000  MEMB      165             0.0000000000
     19559       165  CHL1      H19C           36.9603625158       17.2135295943      -15.8718800000  MEMB      165             0.0000000000
     19560       165  CHL1      C1             39.4422275427       16.0430721039      -15.8914300000  MEMB      165             0.0000000000
     19561       165  CHL1      H1A            39.3605310858       17.1322865557      -16.0945700000  MEMB      165             0.0000000000
     19562       165  CHL1      H1B            40.1392104849       15.8704030700      -15.0436500000  MEMB      165             0.0000000000
     19563       165  CHL1      C2             40.0477703867       15.4806943247      -17.2107700000  MEMB      165             0.0000000000
     19564       165  CHL1      H2A            41.1089074430       15.7479193731      -17.4028700000  MEMB      165             0.0000000000
     19565       165  CHL1      H2B            39.5073516379       15.9166651214      -18.0780700000  MEMB      165             0.0000000000
     19566       165  CHL1      C20            35.8190881738       17.5065086055       -8.8593000000  MEMB      165             0.0000000000
     19567       165  CHL1      H20            34.9292157197       17.8765323209       -9.4120500000  MEMB      165             0.0000000000
     19568       165  CHL1      C21            36.7717212229       18.7010536680       -8.6958000000  MEMB      165             0.0000000000
     19569       165  CHL1      H21A           36.7349201207       19.3319046822       -9.6095900000  MEMB      165             0.0000000000
     19570       165  CHL1      H21B           37.8044968361       18.3247310406       -8.5343300000  MEMB      165             0.0000000000
     19571       165  CHL1      H21C           36.3288793040       19.3067944618       -7.8764700000  MEMB      165             0.0000000000
     19572       165  CHL1      C22            35.2800973389       17.0172801382       -7.5000900000  MEMB      165             0.0000000000
     19573       165  CHL1      H22A           35.0287950082       17.9440126277       -6.9412200000  MEMB      165             0.0000000000
     19574       165  CHL1      H22B           34.3596366594       16.3987398257       -7.5669900000  MEMB      165             0.0000000000
     19575       165  CHL1      C23            36.3212565493       16.2483666188       -6.6031400000  MEMB      165             0.0000000000
     19576       165  CHL1      H23A           36.2139914028       15.2283815694       -7.0302500000  MEMB      165             0.0000000000
     19577       165  CHL1      H23B           37.2878029071       16.6832679832       -6.9362800000  MEMB      165             0.0000000000
     19578       165  CHL1      C24            36.0011462072       16.2971724165       -5.1171200000  MEMB      165             0.0000000000
     19579       165  CHL1      H24A           36.4313516458       17.2367071570       -4.7090400000  MEMB      165             0.0000000000
     19580       165  CHL1      H24B           34.8904619835       16.2720428350       -5.1087500000  MEMB      165             0.0000000000
     19581       165  CHL1      C25            36.6080305591       15.1260091092       -4.3317400000  MEMB      165             0.0000000000
     19582       165  CHL1      H25            36.1228431848       14.2302268274       -4.7750100000  MEMB      165             0.0000000000
     19583       165  CHL1      C26            38.0733828423       14.9205728061       -4.3216800000  MEMB      165             0.0000000000
     19584       165  CHL1      H26A           38.2618597109       13.9748693229       -3.7699100000  MEMB      165             0.0000000000
     19585       165  CHL1      H26B           38.5654806903       14.8982307118       -5.3175100000  MEMB      165             0.0000000000
     19586       165  CHL1      H26C           38.5113048658       15.7426973285       -3.7161700000  MEMB      165             0.0000000000
     19587       165  CHL1      C27            36.2320148045       14.9896362512       -2.9071500000  MEMB      165             0.0000000000
     19588       165  CHL1      H27A           36.8788759400       15.6912372891       -2.3382500000  MEMB      165             0.0000000000
     19589       165  CHL1      H27B           35.2025763485       15.3748077588       -2.7451800000  MEMB      165             0.0000000000
     19590       165  CHL1      H27C           36.2703854178       13.9532843360       -2.5086300000  MEMB      165             0.0000000000
     19591       166  CHL1      C3            -46.6807818830       54.9165422351      -17.3101800000  MEMB      166             0.0000000000
     19592       166  CHL1      H3            -45.6537783486       54.8037239368      -16.9016900000  MEMB      166             0.0000000000
     19593       166  CHL1      O3            -46.6869745170       55.1737935649      -18.6898200000  MEMB      166             0.0000000000
     19594       166  CHL1      H3'           -46.7697205338       56.1273351773      -18.7640300000  MEMB      166             0.0000000000
     19595       166  CHL1      C4            -47.4056204397       53.5731227216      -16.9706400000  MEMB      166             0.0000000000
     19596       166  CHL1      H4A           -48.4831424793       53.6162329032      -17.2378500000  MEMB      166             0.0000000000
     19597       166  CHL1      H4B           -46.9597340531       52.8032833830      -17.6361000000  MEMB      166             0.0000000000
     19598       166  CHL1      C5            -47.1582218588       53.2660613805      -15.4732300000  MEMB      166             0.0000000000
     19599       166  CHL1      C6            -46.3761329548       52.2995532955      -15.0556300000  MEMB      166             0.0000000000
     19600       166  CHL1      H6            -45.8849560141       51.6948105547      -15.8321800000  MEMB      166             0.0000000000
     19601       166  CHL1      C7            -46.0287285127       52.0628435678      -13.5840100000  MEMB      166             0.0000000000
     19602       166  CHL1      H7A           -46.0575001587       50.9605770097      -13.4480400000  MEMB      166             0.0000000000
     19603       166  CHL1      H7B           -45.0079592446       52.4204854136      -13.3301700000  MEMB      166             0.0000000000
     19604       166  CHL1      C8            -47.0195946255       52.7205846898      -12.5914400000  MEMB      166             0.0000000000
     19605       166  CHL1      H8            -48.0000541890       52.2219557942      -12.4352700000  MEMB      166             0.0000000000
     19606       166  CHL1      C14           -46.4495453074       52.7208258921      -11.1663400000  MEMB      166             0.0000000000
     19607       166  CHL1      H14           -45.5313974180       53.3444092757      -11.2160900000  MEMB      166             0.0000000000
     19608       166  CHL1      C15           -46.0006801411       51.4018070071      -10.4913300000  MEMB      166             0.0000000000
     19609       166  CHL1      H15A          -46.7921704141       50.6229089805      -10.5256100000  MEMB      166             0.0000000000
     19610       166  CHL1      H15B          -45.0608396698       51.0044387599      -10.9308000000  MEMB      166             0.0000000000
     19611       166  CHL1      C16           -45.8221943874       51.8091690788       -8.9881800000  MEMB      166             0.0000000000
     19612       166  CHL1      H16A          -46.3231376946       51.0825649294       -8.3133300000  MEMB      166             0.0000000000
     19613       166  CHL1      H16B          -44.8077394423       51.9687459616       -8.5642200000  MEMB      166             0.0000000000
     19614       166  CHL1      C17           -46.4472052629       53.2411262728       -8.8420300000  MEMB      166             0.0000000000
     19615       166  CHL1      H17           -45.5896479877       53.9465096122       -8.8788000000  MEMB      166             0.0000000000
     19616       166  CHL1      C13           -47.2526575289       53.4967678127      -10.0828500000  MEMB      166             0.0000000000
     19617       166  CHL1      C18           -48.7180633032       52.9403681708       -9.8944400000  MEMB      166             0.0000000000
     19618       166  CHL1      H18A          -49.3310183213       53.5097147370       -9.1633800000  MEMB      166             0.0000000000
     19619       166  CHL1      H18B          -49.2620435101       52.9619401582      -10.8629100000  MEMB      166             0.0000000000
     19620       166  CHL1      H18C          -48.5320249751       51.8865287767       -9.5958700000  MEMB      166             0.0000000000
     19621       166  CHL1      C12           -47.2042718586       54.9552035472      -10.5535600000  MEMB      166             0.0000000000
     19622       166  CHL1      H12A          -47.8014320847       55.6946179604       -9.9782400000  MEMB      166             0.0000000000
     19623       166  CHL1      H12B          -46.1430041997       55.2591590471      -10.6785700000  MEMB      166             0.0000000000
     19624       166  CHL1      C11           -47.9279494468       55.0783718498      -11.9596900000  MEMB      166             0.0000000000
     19625       166  CHL1      H11A          -49.0072271474       54.8602926937      -11.8116700000  MEMB      166             0.0000000000
     19626       166  CHL1      H11B          -47.7233592528       56.1015520806      -12.3412100000  MEMB      166             0.0000000000
     19627       166  CHL1      C9            -47.2252422505       54.1617086692      -13.0266100000  MEMB      166             0.0000000000
     19628       166  CHL1      H9            -46.2830508163       54.7305036448      -12.8747100000  MEMB      166             0.0000000000
     19629       166  CHL1      C10           -47.7385744878       54.3166201274      -14.4852600000  MEMB      166             0.0000000000
     19630       166  CHL1      C19           -49.2789406228       54.0603125561      -14.5115700000  MEMB      166             0.0000000000
     19631       166  CHL1      H19A          -49.8411536375       54.6619206845      -13.7657100000  MEMB      166             0.0000000000
     19632       166  CHL1      H19B          -49.5991511340       54.1053401199      -15.5744700000  MEMB      166             0.0000000000
     19633       166  CHL1      H19C          -49.5510773471       52.9976994817      -14.3352000000  MEMB      166             0.0000000000
     19634       166  CHL1      C1            -47.4546536986       55.7372771146      -14.9972500000  MEMB      166             0.0000000000
     19635       166  CHL1      H1A           -48.1214953789       56.5067122528      -14.5527000000  MEMB      166             0.0000000000
     19636       166  CHL1      H1B           -46.3988033599       55.9238892910      -14.7062600000  MEMB      166             0.0000000000
     19637       166  CHL1      C2            -47.4390181417       55.9894217252      -16.5099200000  MEMB      166             0.0000000000
     19638       166  CHL1      H2A           -47.0315858883       57.0049122241      -16.7025700000  MEMB      166             0.0000000000
     19639       166  CHL1      H2B           -48.5145071733       56.0412051633      -16.7837100000  MEMB      166             0.0000000000
     19640       166  CHL1      C20           -47.0828944141       53.5173024802       -7.4514500000  MEMB      166             0.0000000000
     19641       166  CHL1      H20           -48.0198329517       52.9331405799       -7.3280400000  MEMB      166             0.0000000000
     19642       166  CHL1      C21           -47.4503686274       55.0051783617       -7.4164000000  MEMB      166             0.0000000000
     19643       166  CHL1      H21A          -48.2645420852       55.1605317865       -8.1562100000  MEMB      166             0.0000000000
     19644       166  CHL1      H21B          -46.5366873541       55.5787218978       -7.6820200000  MEMB      166             0.0000000000
     19645       166  CHL1      H21C          -47.7300599576       55.3633443732       -6.4025900000  MEMB      166             0.0000000000
     19646       166  CHL1      C22           -46.1326700961       53.1583288033       -6.3139100000  MEMB      166             0.0000000000
     19647       166  CHL1      H22A          -45.6617268261       52.1569620750       -6.4129500000  MEMB      166             0.0000000000
     19648       166  CHL1      H22B          -45.2793466611       53.8687838976       -6.3515600000  MEMB      166             0.0000000000
     19649       166  CHL1      C23           -46.6360140632       53.3267548816       -4.8523000000  MEMB      166             0.0000000000
     19650       166  CHL1      H23A          -45.7040032551       53.5366269200       -4.2851700000  MEMB      166             0.0000000000
     19651       166  CHL1      H23B          -47.3371500827       54.1806580121       -4.7357300000  MEMB      166             0.0000000000
     19652       166  CHL1      C24           -47.1483812063       51.9918974958       -4.2082300000  MEMB      166             0.0000000000
     19653       166  CHL1      H24A          -48.2290356218       51.9554145795       -4.4635300000  MEMB      166             0.0000000000
     19654       166  CHL1      H24B          -46.7526627905       51.1072762740       -4.7515400000  MEMB      166             0.0000000000
     19655       166  CHL1      C25           -46.8812924952       51.8280465400       -2.7343400000  MEMB      166             0.0000000000
     19656       166  CHL1      H25           -45.8118365820       51.9613487123       -2.4645000000  MEMB      166             0.0000000000
     19657       166  CHL1      C26           -47.5993734599       52.7300870346       -1.7736400000  MEMB      166             0.0000000000
     19658       166  CHL1      H26A          -47.1637007753       52.8973378093       -0.7654100000  MEMB      166             0.0000000000
     19659       166  CHL1      H26B          -47.7199962793       53.7154739107       -2.2724200000  MEMB      166             0.0000000000
     19660       166  CHL1      H26C          -48.6728556536       52.4960481855       -1.6087700000  MEMB      166             0.0000000000
     19661       166  CHL1      C27           -47.4339167175       50.4543275872       -2.4173800000  MEMB      166             0.0000000000
     19662       166  CHL1      H27A          -46.9193508413       49.6954258996       -3.0447600000  MEMB      166             0.0000000000
     19663       166  CHL1      H27B          -47.1193290806       50.2774907832       -1.3666200000  MEMB      166             0.0000000000
     19664       166  CHL1      H27C          -48.5238930391       50.3442873181       -2.6022200000  MEMB      166             0.0000000000
     19665       167  CHL1      C3             56.4332352315       38.2355406006      -17.3260350000  MEMB      167             0.0000000000
     19666       167  CHL1      H3             57.1963500505       39.0310959368      -17.1879050000  MEMB      167             0.0000000000
     19667       167  CHL1      O3             56.4482523685       38.0305605994      -18.6739650000  MEMB      167             0.0000000000
     19668       167  CHL1      H3'            56.6095862229       38.9129487564      -19.0159450000  MEMB      167             0.0000000000
     19669       167  CHL1      C4             56.7430414208       36.9794967773      -16.5164650000  MEMB      167             0.0000000000
     19670       167  CHL1      H4A            56.1107717072       36.1385644582      -16.8733850000  MEMB      167             0.0000000000
     19671       167  CHL1      H4B            57.7699835798       36.6840858145      -16.8205150000  MEMB      167             0.0000000000
     19672       167  CHL1      C5             56.5585367669       37.3830841646      -15.0628250000  MEMB      167             0.0000000000
     19673       167  CHL1      C6             57.5275201239       37.0576477514      -14.1924650000  MEMB      167             0.0000000000
     19674       167  CHL1      H6             58.4595154678       36.6446994230      -14.6057950000  MEMB      167             0.0000000000
     19675       167  CHL1      C7             57.3714007469       37.2132015495      -12.6991750000  MEMB      167             0.0000000000
     19676       167  CHL1      H7A            57.8511508850       36.3931320658      -12.1232950000  MEMB      167             0.0000000000
     19677       167  CHL1      H7B            57.8672333387       38.1093101707      -12.2685150000  MEMB      167             0.0000000000
     19678       167  CHL1      C8             55.8537439988       37.1933696578      -12.2947350000  MEMB      167             0.0000000000
     19679       167  CHL1      H8             55.3767805467       36.2121639640      -12.5046650000  MEMB      167             0.0000000000
     19680       167  CHL1      C14            55.7608811059       37.4954019499      -10.7578450000  MEMB      167             0.0000000000
     19681       167  CHL1      H14            56.4359760116       38.3662023828      -10.6154850000  MEMB      167             0.0000000000
     19682       167  CHL1      C15            56.3713582484       36.4668314622       -9.7691950000  MEMB      167             0.0000000000
     19683       167  CHL1      H15A           56.1214368635       35.4478415357      -10.1345850000  MEMB      167             0.0000000000
     19684       167  CHL1      H15B           57.4695413588       36.6343614910       -9.7532950000  MEMB      167             0.0000000000
     19685       167  CHL1      C16            55.6820608173       36.7119067166       -8.4256050000  MEMB      167             0.0000000000
     19686       167  CHL1      H16A           55.0252756543       35.8974738925       -8.0519250000  MEMB      167             0.0000000000
     19687       167  CHL1      H16B           56.4674208587       36.9763165679       -7.6855950000  MEMB      167             0.0000000000
     19688       167  CHL1      C17            54.6765045684       37.9297096988       -8.7856650000  MEMB      167             0.0000000000
     19689       167  CHL1      H17            55.1851550833       38.9169264198       -8.7543250000  MEMB      167             0.0000000000
     19690       167  CHL1      C13            54.3675873816       37.7854145132      -10.2618850000  MEMB      167             0.0000000000
     19691       167  CHL1      C18            53.6179174386       36.4419681223      -10.5242750000  MEMB      167             0.0000000000
     19692       167  CHL1      H18A           53.9204662283       35.4967286617      -10.0249850000  MEMB      167             0.0000000000
     19693       167  CHL1      H18B           52.5880756312       36.7597657651      -10.2545250000  MEMB      167             0.0000000000
     19694       167  CHL1      H18C           53.5941967398       36.1465616528      -11.5950150000  MEMB      167             0.0000000000
     19695       167  CHL1      C12            53.8580292812       39.0261896581      -11.0133250000  MEMB      167             0.0000000000
     19696       167  CHL1      H12A           52.8660318846       39.3698919543      -10.6498650000  MEMB      167             0.0000000000
     19697       167  CHL1      H12B           54.5496511881       39.8595634556      -10.7653950000  MEMB      167             0.0000000000
     19698       167  CHL1      C11            53.7658290725       38.8141609070      -12.5906850000  MEMB      167             0.0000000000
     19699       167  CHL1      H11A           53.0044267144       38.0293143465      -12.7871650000  MEMB      167             0.0000000000
     19700       167  CHL1      H11B           53.3803337956       39.7450615128      -13.0588150000  MEMB      167             0.0000000000
     19701       167  CHL1      C9             55.1525009394       38.3565899622      -13.1249650000  MEMB      167             0.0000000000
     19702       167  CHL1      H9             55.8937698799       39.1614927735      -12.9326950000  MEMB      167             0.0000000000
     19703       167  CHL1      C10            55.1969317394       37.9129664582      -14.6549650000  MEMB      167             0.0000000000
     19704       167  CHL1      C19            54.1557047323       36.8084015374      -14.8685650000  MEMB      167             0.0000000000
     19705       167  CHL1      H19A           54.1106508011       36.3749543141      -15.8905250000  MEMB      167             0.0000000000
     19706       167  CHL1      H19B           54.3522617364       35.9337197963      -14.2123550000  MEMB      167             0.0000000000
     19707       167  CHL1      H19C           53.1420737806       37.2509922262      -14.7636550000  MEMB      167             0.0000000000
     19708       167  CHL1      C1             54.8827667893       39.1260157876      -15.4906250000  MEMB      167             0.0000000000
     19709       167  CHL1      H1A            53.8449654121       39.5001506875      -15.3590450000  MEMB      167             0.0000000000
     19710       167  CHL1      H1B            55.5094371839       40.0126215271      -15.2549650000  MEMB      167             0.0000000000
     19711       167  CHL1      C2             55.0369108305       38.8552426454      -16.9808450000  MEMB      167             0.0000000000
     19712       167  CHL1      H2A            54.9213763838       39.7563488108      -17.6203750000  MEMB      167             0.0000000000
     19713       167  CHL1      H2B            54.2784754068       38.0834456290      -17.2326950000  MEMB      167             0.0000000000
     19714       167  CHL1      C20            53.5472281230       37.9984848824       -7.6865750000  MEMB      167             0.0000000000
     19715       167  CHL1      H20            53.0489694925       37.0368596119       -7.4388950000  MEMB      167             0.0000000000
     19716       167  CHL1      C21            52.3561263695       38.8635430068       -8.1167150000  MEMB      167             0.0000000000
     19717       167  CHL1      H21A           51.6978494167       39.0733733960       -7.2466750000  MEMB      167             0.0000000000
     19718       167  CHL1      H21B           51.8270535491       38.3146141837       -8.9248550000  MEMB      167             0.0000000000
     19719       167  CHL1      H21C           52.6820589580       39.8611679684       -8.4811550000  MEMB      167             0.0000000000
     19720       167  CHL1      C22            54.1345833663       38.5882557436       -6.3617150000  MEMB      167             0.0000000000
     19721       167  CHL1      H22A           55.1354661993       38.2237602990       -6.0459650000  MEMB      167             0.0000000000
     19722       167  CHL1      H22B           54.2626048554       39.6437003146       -6.6841550000  MEMB      167             0.0000000000
     19723       167  CHL1      C23            53.1969674824       38.3738170934       -5.1233050000  MEMB      167             0.0000000000
     19724       167  CHL1      H23A           52.2437428566       38.9437240845       -5.1530250000  MEMB      167             0.0000000000
     19725       167  CHL1      H23B           52.8825779243       37.3082657500       -5.1148950000  MEMB      167             0.0000000000
     19726       167  CHL1      C24            53.9916610740       38.6806054267       -3.7921250000  MEMB      167             0.0000000000
     19727       167  CHL1      H24A           54.8620022803       37.9969299143       -3.6950150000  MEMB      167             0.0000000000
     19728       167  CHL1      H24B           54.3370864759       39.7324349336       -3.6990750000  MEMB      167             0.0000000000
     19729       167  CHL1      C25            53.0383222317       38.5183949833       -2.5525550000  MEMB      167             0.0000000000
     19730       167  CHL1      H25            52.1714548836       39.2004077243       -2.6856750000  MEMB      167             0.0000000000
     19731       167  CHL1      C26            52.6019053715       37.0695300178       -2.2436750000  MEMB      167             0.0000000000
     19732       167  CHL1      H26A           52.0037043857       37.0888083588       -1.3076650000  MEMB      167             0.0000000000
     19733       167  CHL1      H26B           51.9975816700       36.6619386020       -3.0821250000  MEMB      167             0.0000000000
     19734       167  CHL1      H26C           53.4560947875       36.3620774373       -2.1789150000  MEMB      167             0.0000000000
     19735       167  CHL1      C27            53.8153508478       39.0728364610       -1.3698450000  MEMB      167             0.0000000000
     19736       167  CHL1      H27A           53.1394962157       39.0277788049       -0.4892150000  MEMB      167             0.0000000000
     19737       167  CHL1      H27B           54.7129432597       38.4808387463       -1.0902350000  MEMB      167             0.0000000000
     19738       167  CHL1      H27C           54.0727235046       40.1489176745       -1.4704950000  MEMB      167             0.0000000000
     19739       168  CHL1      C3            -10.1349806193      -47.6037347143      -17.3722950000  MEMB      168             0.0000000000
     19740       168  CHL1      H3            -10.5333670054      -46.7764990888      -16.7467650000  MEMB      168             0.0000000000
     19741       168  CHL1      O3             -9.9753613807      -47.1233584857      -18.6277050000  MEMB      168             0.0000000000
     19742       168  CHL1      H3'            -9.0856114713      -46.7629443698      -18.6210750000  MEMB      168             0.0000000000
     19743       168  CHL1      C4             -8.7483284085      -47.9859253139      -16.8355550000  MEMB      168             0.0000000000
     19744       168  CHL1      H4A            -8.4396920778      -48.8716303548      -17.4310250000  MEMB      168             0.0000000000
     19745       168  CHL1      H4B            -7.9823866805      -47.2028050949      -17.0209650000  MEMB      168             0.0000000000
     19746       168  CHL1      C5             -8.8844021632      -48.2600463778      -15.3374750000  MEMB      168             0.0000000000
     19747       168  CHL1      C6             -8.3142607839      -47.4334276847      -14.4978450000  MEMB      168             0.0000000000
     19748       168  CHL1      H6             -7.6471725896      -46.6342938503      -14.8533350000  MEMB      168             0.0000000000
     19749       168  CHL1      C7             -8.4461135959      -47.6042880196      -12.9894850000  MEMB      168             0.0000000000
     19750       168  CHL1      H7A            -7.4385936999      -47.6481794959      -12.5233450000  MEMB      168             0.0000000000
     19751       168  CHL1      H7B            -9.1115274508      -46.7862403116      -12.6397050000  MEMB      168             0.0000000000
     19752       168  CHL1      C8             -9.1166837199      -48.9666240062      -12.6689250000  MEMB      168             0.0000000000
     19753       168  CHL1      H8             -8.4342836518      -49.8397856204      -12.7478350000  MEMB      168             0.0000000000
     19754       168  CHL1      C14            -9.5286117878      -48.8908727196      -11.2658650000  MEMB      168             0.0000000000
     19755       168  CHL1      H14           -10.3407297060      -48.1379392368      -11.1771150000  MEMB      168             0.0000000000
     19756       168  CHL1      C15            -8.5540499876      -48.3904852342      -10.1517850000  MEMB      168             0.0000000000
     19757       168  CHL1      H15A           -7.5688367123      -48.8114966198      -10.4457750000  MEMB      168             0.0000000000
     19758       168  CHL1      H15B           -8.5855234132      -47.2833721614      -10.0645150000  MEMB      168             0.0000000000
     19759       168  CHL1      C16            -9.0150922250      -48.9994083600       -8.8672550000  MEMB      168             0.0000000000
     19760       168  CHL1      H16A           -8.2857754916      -49.8022749771       -8.6267950000  MEMB      168             0.0000000000
     19761       168  CHL1      H16B           -9.0337214893      -48.2632306579       -8.0353750000  MEMB      168             0.0000000000
     19762       168  CHL1      C17           -10.3904284929      -49.5970490204       -9.1720450000  MEMB      168             0.0000000000
     19763       168  CHL1      H17           -11.0739818584      -48.7223632982       -9.1274450000  MEMB      168             0.0000000000
     19764       168  CHL1      C13           -10.2836034415      -50.1058473821      -10.6152750000  MEMB      168             0.0000000000
     19765       168  CHL1      C18            -9.5446699726      -51.4031806964      -10.5912750000  MEMB      168             0.0000000000
     19766       168  CHL1      H18A           -8.6991948978      -51.3689910039       -9.8713250000  MEMB      168             0.0000000000
     19767       168  CHL1      H18B          -10.0516644469      -52.3378926752      -10.2694250000  MEMB      168             0.0000000000
     19768       168  CHL1      H18C           -9.1899627322      -51.5131228869      -11.6383750000  MEMB      168             0.0000000000
     19769       168  CHL1      C12           -11.5562322782      -50.2888720084      -11.5617650000  MEMB      168             0.0000000000
     19770       168  CHL1      H12A          -12.1650110352      -51.1865456313      -11.3211450000  MEMB      168             0.0000000000
     19771       168  CHL1      H12B          -12.1680132367      -49.3660009679      -11.4703650000  MEMB      168             0.0000000000
     19772       168  CHL1      C11           -11.1869064902      -50.4662200967      -13.0535050000  MEMB      168             0.0000000000
     19773       168  CHL1      H11A          -10.6657977755      -51.4424772890      -13.1519850000  MEMB      168             0.0000000000
     19774       168  CHL1      H11B          -12.1983341297      -50.4731988283      -13.5131650000  MEMB      168             0.0000000000
     19775       168  CHL1      C9            -10.3351666955      -49.2840503427      -13.5413250000  MEMB      168             0.0000000000
     19776       168  CHL1      H9            -10.9332097805      -48.3554182580      -13.4216350000  MEMB      168             0.0000000000
     19777       168  CHL1      C10            -9.9307780523      -49.3597236811      -15.0296250000  MEMB      168             0.0000000000
     19778       168  CHL1      C19            -9.2368782979      -50.7191687782      -15.2772350000  MEMB      168             0.0000000000
     19779       168  CHL1      H19A           -8.4055251283      -50.7610455829      -14.5414150000  MEMB      168             0.0000000000
     19780       168  CHL1      H19B           -9.8626749750      -51.6174110765      -15.0878650000  MEMB      168             0.0000000000
     19781       168  CHL1      H19C           -9.0002874738      -50.7537110969      -16.3622050000  MEMB      168             0.0000000000
     19782       168  CHL1      C1            -11.2845400043      -49.2219927610      -15.8445350000  MEMB      168             0.0000000000
     19783       168  CHL1      H1A           -11.7171033557      -50.2446011239      -15.8831650000  MEMB      168             0.0000000000
     19784       168  CHL1      H1B           -11.9888543216      -48.5090599150      -15.3649650000  MEMB      168             0.0000000000
     19785       168  CHL1      C2            -11.1097885502      -48.7896241250      -17.2855150000  MEMB      168             0.0000000000
     19786       168  CHL1      H2A           -12.0923603326      -48.3665929831      -17.5853750000  MEMB      168             0.0000000000
     19787       168  CHL1      H2B           -10.8188501801      -49.7047684916      -17.8442550000  MEMB      168             0.0000000000
     19788       168  CHL1      C20           -10.8701101844      -50.5885889535       -8.0568650000  MEMB      168             0.0000000000
     19789       168  CHL1      H20           -10.1985676721      -51.4615469015       -7.9109050000  MEMB      168             0.0000000000
     19790       168  CHL1      C21           -12.2286401003      -51.2062451762       -8.4214550000  MEMB      168             0.0000000000
     19791       168  CHL1      H21A          -12.2219535259      -51.9841520558       -9.2146450000  MEMB      168             0.0000000000
     19792       168  CHL1      H21B          -12.8313936233      -50.3627221761       -8.8208050000  MEMB      168             0.0000000000
     19793       168  CHL1      H21C          -12.7442209014      -51.6425854407       -7.5393550000  MEMB      168             0.0000000000
     19794       168  CHL1      C22           -10.8521310747      -49.8800748150       -6.7346550000  MEMB      168             0.0000000000
     19795       168  CHL1      H22A           -9.8051437653      -49.6522921273       -6.4409450000  MEMB      168             0.0000000000
     19796       168  CHL1      H22B          -11.4616631238      -48.9523661506       -6.7808450000  MEMB      168             0.0000000000
     19797       168  CHL1      C23           -11.4517982871      -50.7075516926       -5.5777350000  MEMB      168             0.0000000000
     19798       168  CHL1      H23A          -12.5322653616      -50.7279716628       -5.8356150000  MEMB      168             0.0000000000
     19799       168  CHL1      H23B          -10.9393400705      -51.6929005614       -5.5494650000  MEMB      168             0.0000000000
     19800       168  CHL1      C24           -11.4560749456      -50.0700795142       -4.2279250000  MEMB      168             0.0000000000
     19801       168  CHL1      H24A          -10.4966641856      -50.1248359950       -3.6703850000  MEMB      168             0.0000000000
     19802       168  CHL1      H24B          -11.5881036224      -48.9971255741       -4.4841750000  MEMB      168             0.0000000000
     19803       168  CHL1      C25           -12.6770226699      -50.4730318036       -3.3696150000  MEMB      168             0.0000000000
     19804       168  CHL1      H25           -13.5042208920      -50.7120647590       -4.0717050000  MEMB      168             0.0000000000
     19805       168  CHL1      C26           -12.1739424409      -51.5973709603       -2.4012750000  MEMB      168             0.0000000000
     19806       168  CHL1      H26A          -12.9228372386      -51.9225988357       -1.6478250000  MEMB      168             0.0000000000
     19807       168  CHL1      H26B          -11.9939239269      -52.4396398995       -3.1030550000  MEMB      168             0.0000000000
     19808       168  CHL1      H26C          -11.2302213165      -51.3222224163       -1.8835750000  MEMB      168             0.0000000000
     19809       168  CHL1      C27           -13.1560805269      -49.2232096498       -2.4742750000  MEMB      168             0.0000000000
     19810       168  CHL1      H27A          -13.1828709786      -48.3495822884       -3.1601150000  MEMB      168             0.0000000000
     19811       168  CHL1      H27B          -14.1161107106      -49.3701411607       -1.9347650000  MEMB      168             0.0000000000
     19812       168  CHL1      H27C          -12.4127629598      -49.0314604431       -1.6711350000  MEMB      168             0.0000000000
     19813       169  CHL1      C3            -32.1683853248       38.7147100499      -17.2861800000  MEMB      169             0.0000000000
     19814       169  CHL1      H3            -32.8398673864       39.5903213736      -17.1568400000  MEMB      169             0.0000000000
     19815       169  CHL1      O3            -32.2353934752       38.5463007501      -18.7138200000  MEMB      169             0.0000000000
     19816       169  CHL1      H3'           -33.0135920285       39.0335074866      -18.9942200000  MEMB      169             0.0000000000
     19817       169  CHL1      C4            -30.6898495651       38.9384258492      -16.8469500000  MEMB      169             0.0000000000
     19818       169  CHL1      H4A           -30.0715103614       38.0935955318      -17.2187500000  MEMB      169             0.0000000000
     19819       169  CHL1      H4B           -30.2359454260       39.7505206235      -17.4542300000  MEMB      169             0.0000000000
     19820       169  CHL1      C5            -30.6007261286       39.2175380989      -15.3431300000  MEMB      169             0.0000000000
     19821       169  CHL1      C6            -30.0209948566       40.2911485193      -14.8162500000  MEMB      169             0.0000000000
     19822       169  CHL1      H6            -29.6131373750       41.0823590453      -15.4625000000  MEMB      169             0.0000000000
     19823       169  CHL1      C7            -29.9341091661       40.7108618181      -13.4033800000  MEMB      169             0.0000000000
     19824       169  CHL1      H7A           -28.9331487114       41.1264556753      -13.1591100000  MEMB      169             0.0000000000
     19825       169  CHL1      H7B           -30.6150437866       41.5798777470      -13.2790000000  MEMB      169             0.0000000000
     19826       169  CHL1      C8            -30.1677890699       39.5644603340      -12.4390200000  MEMB      169             0.0000000000
     19827       169  CHL1      H8            -29.2380664820       38.9567188198      -12.4148100000  MEMB      169             0.0000000000
     19828       169  CHL1      C14           -30.4661183513       40.0940914451      -11.1366100000  MEMB      169             0.0000000000
     19829       169  CHL1      H14           -31.4522072788       40.6043283700      -11.0966100000  MEMB      169             0.0000000000
     19830       169  CHL1      C15           -29.5199839728       41.2340042343      -10.6580300000  MEMB      169             0.0000000000
     19831       169  CHL1      H15A          -28.4459959698       41.0903787406      -10.9034900000  MEMB      169             0.0000000000
     19832       169  CHL1      H15B          -29.8754120104       42.2277284508      -11.0051700000  MEMB      169             0.0000000000
     19833       169  CHL1      C16           -29.6828669336       41.2701737389       -9.1620400000  MEMB      169             0.0000000000
     19834       169  CHL1      H16A          -28.7464994151       40.9910388921       -8.6332600000  MEMB      169             0.0000000000
     19835       169  CHL1      H16B          -30.0334863313       42.2735251348       -8.8385000000  MEMB      169             0.0000000000
     19836       169  CHL1      C17           -30.7208551553       40.1053607652       -8.8218100000  MEMB      169             0.0000000000
     19837       169  CHL1      H17           -31.7606397345       40.4823577970       -8.9268900000  MEMB      169             0.0000000000
     19838       169  CHL1      C13           -30.5935759933       39.1238670459      -10.0107300000  MEMB      169             0.0000000000
     19839       169  CHL1      C18           -29.2855381302       38.2931504672       -9.9704900000  MEMB      169             0.0000000000
     19840       169  CHL1      H18A          -28.4453883603       38.9901609660       -9.7640000000  MEMB      169             0.0000000000
     19841       169  CHL1      H18B          -29.3686992554       37.6331414586       -9.0806600000  MEMB      169             0.0000000000
     19842       169  CHL1      H18C          -29.2150838506       37.6134564438      -10.8465000000  MEMB      169             0.0000000000
     19843       169  CHL1      C12           -31.8094662620       38.2405135931      -10.3450500000  MEMB      169             0.0000000000
     19844       169  CHL1      H12A          -31.9575502497       37.4137234045       -9.6178600000  MEMB      169             0.0000000000
     19845       169  CHL1      H12B          -32.7332980041       38.8463142734      -10.2272500000  MEMB      169             0.0000000000
     19846       169  CHL1      C11           -31.7573060353       37.6569223097      -11.8063600000  MEMB      169             0.0000000000
     19847       169  CHL1      H11A          -31.0604636206       36.7947925250      -11.8802200000  MEMB      169             0.0000000000
     19848       169  CHL1      H11B          -32.7653715779       37.2098440082      -11.9414100000  MEMB      169             0.0000000000
     19849       169  CHL1      C9            -31.4469919399       38.7223855453      -12.8575800000  MEMB      169             0.0000000000
     19850       169  CHL1      H9            -32.4057434443       39.2816578063      -12.8092000000  MEMB      169             0.0000000000
     19851       169  CHL1      C10           -31.2799518637       38.2484303175      -14.3758600000  MEMB      169             0.0000000000
     19852       169  CHL1      C19           -30.4625238560       36.9715768059      -14.3971700000  MEMB      169             0.0000000000
     19853       169  CHL1      H19A          -29.6064390307       37.1174470222      -13.7042300000  MEMB      169             0.0000000000
     19854       169  CHL1      H19B          -31.1033165460       36.1142011204      -14.0994900000  MEMB      169             0.0000000000
     19855       169  CHL1      H19C          -30.0308345012       36.7777142634      -15.4023500000  MEMB      169             0.0000000000
     19856       169  CHL1      C1            -32.7733628210       38.0400951260      -15.0001800000  MEMB      169             0.0000000000
     19857       169  CHL1      H1A           -33.0780098958       37.1109308511      -14.4727600000  MEMB      169             0.0000000000
     19858       169  CHL1      H1B           -33.4699112136       38.8771274197      -14.7799000000  MEMB      169             0.0000000000
     19859       169  CHL1      C2            -32.7483738004       37.5066976874      -16.4714100000  MEMB      169             0.0000000000
     19860       169  CHL1      H2A           -33.7757905640       37.3191077122      -16.8503000000  MEMB      169             0.0000000000
     19861       169  CHL1      H2B           -32.2206178974       36.5349155725      -16.5783000000  MEMB      169             0.0000000000
     19862       169  CHL1      C20           -30.5021101684       39.5845147419       -7.3501000000  MEMB      169             0.0000000000
     19863       169  CHL1      H20           -29.5459589584       39.0193917827       -7.3772700000  MEMB      169             0.0000000000
     19864       169  CHL1      C21           -31.5651373857       38.4693727566       -7.0776600000  MEMB      169             0.0000000000
     19865       169  CHL1      H21A          -31.3016618262       37.4644914982       -7.4715000000  MEMB      169             0.0000000000
     19866       169  CHL1      H21B          -32.5756057812       38.7958329121       -7.4043100000  MEMB      169             0.0000000000
     19867       169  CHL1      H21C          -31.5254233535       38.4179658530       -5.9685600000  MEMB      169             0.0000000000
     19868       169  CHL1      C22           -30.5247487458       40.6822727861       -6.2431600000  MEMB      169             0.0000000000
     19869       169  CHL1      H22A          -30.0491680485       41.6097078068       -6.6278900000  MEMB      169             0.0000000000
     19870       169  CHL1      H22B          -31.5508068785       40.9601069682       -5.9201600000  MEMB      169             0.0000000000
     19871       169  CHL1      C23           -29.8624295818       40.2740176749       -4.8874800000  MEMB      169             0.0000000000
     19872       169  CHL1      H23A          -30.2514660866       39.2909249751       -4.5461800000  MEMB      169             0.0000000000
     19873       169  CHL1      H23B          -28.7524576081       40.2331008778       -4.9122900000  MEMB      169             0.0000000000
     19874       169  CHL1      C24           -30.1482182064       41.2847228091       -3.7315900000  MEMB      169             0.0000000000
     19875       169  CHL1      H24A          -29.7946209433       42.2902432361       -4.0449900000  MEMB      169             0.0000000000
     19876       169  CHL1      H24B          -31.2463415627       41.4528924206       -3.7184800000  MEMB      169             0.0000000000
     19877       169  CHL1      C25           -29.5280854097       41.0012113022       -2.3378700000  MEMB      169             0.0000000000
     19878       169  CHL1      H25           -29.6227133890       41.8602983498       -1.6397700000  MEMB      169             0.0000000000
     19879       169  CHL1      C26           -30.3394752657       39.8586057524       -1.6734900000  MEMB      169             0.0000000000
     19880       169  CHL1      H26A          -30.1013014470       38.9064698872       -2.1941000000  MEMB      169             0.0000000000
     19881       169  CHL1      H26B          -29.8901939973       39.8025689399       -0.6589300000  MEMB      169             0.0000000000
     19882       169  CHL1      H26C          -31.4095978294       40.1156852138       -1.5215900000  MEMB      169             0.0000000000
     19883       169  CHL1      C27           -28.1142088785       40.4589209858       -2.3712000000  MEMB      169             0.0000000000
     19884       169  CHL1      H27A          -28.1089320605       39.4827643586       -2.9016700000  MEMB      169             0.0000000000
     19885       169  CHL1      H27B          -27.4091358498       41.2046447987       -2.7967300000  MEMB      169             0.0000000000
     19886       169  CHL1      H27C          -27.6915149239       40.3343449930       -1.3513300000  MEMB      169             0.0000000000
     19887       170  CHL1      C3            -54.6955342450      -33.0545273212      -17.4374750000  MEMB      170             0.0000000000
     19888       170  CHL1      H3            -54.0468012542      -32.2700731069      -17.8825350000  MEMB      170             0.0000000000
     19889       170  CHL1      O3            -55.3560293550      -33.6144406788      -18.5625250000  MEMB      170             0.0000000000
     19890       170  CHL1      H3'           -54.7521394187      -33.7709292089      -19.2922150000  MEMB      170             0.0000000000
     19891       170  CHL1      C4            -53.7514808104      -34.0650070070      -16.8112450000  MEMB      170             0.0000000000
     19892       170  CHL1      H4A           -54.2537906371      -35.0488531456      -16.6926750000  MEMB      170             0.0000000000
     19893       170  CHL1      H4B           -52.9567318096      -34.2646097751      -17.5614850000  MEMB      170             0.0000000000
     19894       170  CHL1      C5            -53.0670095863      -33.5789551498      -15.5349950000  MEMB      170             0.0000000000
     19895       170  CHL1      C6            -51.7076634142      -33.5539596558      -15.4642350000  MEMB      170             0.0000000000
     19896       170  CHL1      H6            -51.1192603031      -33.8623987543      -16.3409550000  MEMB      170             0.0000000000
     19897       170  CHL1      C7            -51.0287134718      -33.1389047313      -14.1581950000  MEMB      170             0.0000000000
     19898       170  CHL1      H7A           -50.1209382494      -33.7311551457      -13.9143050000  MEMB      170             0.0000000000
     19899       170  CHL1      H7B           -50.6524177387      -32.0967779621      -14.2400650000  MEMB      170             0.0000000000
     19900       170  CHL1      C8            -52.0234786086      -33.1900253692      -12.9385350000  MEMB      170             0.0000000000
     19901       170  CHL1      H8            -52.2595122908      -34.2738509200      -12.8757650000  MEMB      170             0.0000000000
     19902       170  CHL1      C14           -51.2933187569      -32.7033228978      -11.7121650000  MEMB      170             0.0000000000
     19903       170  CHL1      H14           -51.1121135426      -31.6152317512      -11.8446050000  MEMB      170             0.0000000000
     19904       170  CHL1      C15           -50.0467741034      -33.4587661842      -11.3377750000  MEMB      170             0.0000000000
     19905       170  CHL1      H15A          -50.0303052291      -34.5456148731      -11.5675750000  MEMB      170             0.0000000000
     19906       170  CHL1      H15B          -49.2361867185      -32.8328574546      -11.7684750000  MEMB      170             0.0000000000
     19907       170  CHL1      C16           -49.9953509237      -33.3721153204       -9.7864950000  MEMB      170             0.0000000000
     19908       170  CHL1      H16A          -50.2145459173      -34.3836589871       -9.3826850000  MEMB      170             0.0000000000
     19909       170  CHL1      H16B          -49.0446019036      -32.9587545996       -9.3870850000  MEMB      170             0.0000000000
     19910       170  CHL1      C17           -51.1643857675      -32.3750456656       -9.3354150000  MEMB      170             0.0000000000
     19911       170  CHL1      H17           -50.7906322333      -31.3332964212       -9.4323450000  MEMB      170             0.0000000000
     19912       170  CHL1      C13           -52.2248148518      -32.7010006536      -10.4192650000  MEMB      170             0.0000000000
     19913       170  CHL1      C18           -52.7936980595      -34.1257479444      -10.1630950000  MEMB      170             0.0000000000
     19914       170  CHL1      H18A          -52.1042127110      -34.9095047958       -9.7827350000  MEMB      170             0.0000000000
     19915       170  CHL1      H18B          -53.6495036666      -34.0844869927       -9.4558350000  MEMB      170             0.0000000000
     19916       170  CHL1      H18C          -53.2854142049      -34.4923063066      -11.0894650000  MEMB      170             0.0000000000
     19917       170  CHL1      C12           -53.2937776008      -31.7056722476      -10.8044450000  MEMB      170             0.0000000000
     19918       170  CHL1      H12A          -54.0449362139      -31.5554040729       -9.9997750000  MEMB      170             0.0000000000
     19919       170  CHL1      H12B          -52.7736794757      -30.7470191327      -11.0161550000  MEMB      170             0.0000000000
     19920       170  CHL1      C11           -54.1248703427      -32.0253497326      -12.0049650000  MEMB      170             0.0000000000
     19921       170  CHL1      H11A          -54.8144600538      -32.8524625791      -11.7317250000  MEMB      170             0.0000000000
     19922       170  CHL1      H11B          -54.8302987761      -31.2095624247      -12.2718050000  MEMB      170             0.0000000000
     19923       170  CHL1      C9            -53.3156354583      -32.3818997902      -13.2673950000  MEMB      170             0.0000000000
     19924       170  CHL1      H9            -52.9740445110      -31.4527357491      -13.7716750000  MEMB      170             0.0000000000
     19925       170  CHL1      C10           -54.1355064244      -33.1425432129      -14.4414450000  MEMB      170             0.0000000000
     19926       170  CHL1      C19           -54.9333801879      -34.3613333727      -13.9883650000  MEMB      170             0.0000000000
     19927       170  CHL1      H19A          -55.7820621127      -34.1508976272      -13.3029650000  MEMB      170             0.0000000000
     19928       170  CHL1      H19B          -55.3886271083      -34.8983531690      -14.8478350000  MEMB      170             0.0000000000
     19929       170  CHL1      H19C          -54.3939253533      -35.1906504062      -13.4828450000  MEMB      170             0.0000000000
     19930       170  CHL1      C1            -55.0465976516      -32.0850732016      -15.1067850000  MEMB      170             0.0000000000
     19931       170  CHL1      H1A           -55.7486379903      -31.8610454282      -14.2753550000  MEMB      170             0.0000000000
     19932       170  CHL1      H1B           -54.4676773667      -31.1597679008      -15.3140950000  MEMB      170             0.0000000000
     19933       170  CHL1      C2            -55.6923856361      -32.5115996670      -16.4125950000  MEMB      170             0.0000000000
     19934       170  CHL1      H2A           -56.2464607249      -31.6347716015      -16.8106950000  MEMB      170             0.0000000000
     19935       170  CHL1      H2B           -56.4773225685      -33.2156019404      -16.0624950000  MEMB      170             0.0000000000
     19936       170  CHL1      C20           -51.5986886317      -32.5743381438       -7.8447850000  MEMB      170             0.0000000000
     19937       170  CHL1      H20           -51.7370551578      -33.6654938941       -7.6881550000  MEMB      170             0.0000000000
     19938       170  CHL1      C21           -52.9262697505      -31.8202380556       -7.5969950000  MEMB      170             0.0000000000
     19939       170  CHL1      H21A          -53.5792010618      -32.4486758633       -8.2397150000  MEMB      170             0.0000000000
     19940       170  CHL1      H21B          -52.9680116236      -30.7906444409       -8.0123450000  MEMB      170             0.0000000000
     19941       170  CHL1      H21C          -53.2666013995      -31.9631967951       -6.5491150000  MEMB      170             0.0000000000
     19942       170  CHL1      C22           -50.4625375550      -32.2811920246       -6.8537350000  MEMB      170             0.0000000000
     19943       170  CHL1      H22A          -49.6056069731      -32.9217428752       -7.1532250000  MEMB      170             0.0000000000
     19944       170  CHL1      H22B          -50.2045379155      -31.2557931802       -7.1947750000  MEMB      170             0.0000000000
     19945       170  CHL1      C23           -50.8763551240      -32.3946358262       -5.4152350000  MEMB      170             0.0000000000
     19946       170  CHL1      H23A          -51.6191040102      -31.5942326402       -5.2102750000  MEMB      170             0.0000000000
     19947       170  CHL1      H23B          -51.4839329276      -33.3247084663       -5.4032950000  MEMB      170             0.0000000000
     19948       170  CHL1      C24           -49.8809723545      -32.2987516280       -4.2202850000  MEMB      170             0.0000000000
     19949       170  CHL1      H24A          -49.0960227326      -33.0258196676       -4.5195150000  MEMB      170             0.0000000000
     19950       170  CHL1      H24B          -49.4577131381      -31.2823643950       -4.0714750000  MEMB      170             0.0000000000
     19951       170  CHL1      C25           -50.4681247438      -32.7611855155       -2.8182350000  MEMB      170             0.0000000000
     19952       170  CHL1      H25           -51.3568628950      -32.1232531252       -2.6245650000  MEMB      170             0.0000000000
     19953       170  CHL1      C26           -50.7861623403      -34.1998429519       -2.8237350000  MEMB      170             0.0000000000
     19954       170  CHL1      H26A          -49.9454384501      -34.9008660303       -2.6338350000  MEMB      170             0.0000000000
     19955       170  CHL1      H26B          -51.4425136077      -34.3884018414       -1.9473950000  MEMB      170             0.0000000000
     19956       170  CHL1      H26C          -51.3756409017      -34.5904834343       -3.6806050000  MEMB      170             0.0000000000
     19957       170  CHL1      C27           -49.3604742174      -32.6738288703       -1.7483550000  MEMB      170             0.0000000000
     19958       170  CHL1      H27A          -48.8154619169      -31.7176643020       -1.9001050000  MEMB      170             0.0000000000
     19959       170  CHL1      H27B          -49.7393463444      -32.5535207879       -0.7109050000  MEMB      170             0.0000000000
     19960       170  CHL1      H27C          -48.5790189364      -33.4629833987       -1.7782250000  MEMB      170             0.0000000000
     19961       171  CHL1      C3              5.6888872933      -54.2615031190      -17.3339050000  MEMB      171             0.0000000000
     19962       171  CHL1      H3              5.0261990304      -55.1514693626      -17.2779750000  MEMB      171             0.0000000000
     19963       171  CHL1      O3              6.0654842067      -53.9023894810      -18.6660950000  MEMB      171             0.0000000000
     19964       171  CHL1      H3'             6.4378526071      -54.7450357769      -18.9360850000  MEMB      171             0.0000000000
     19965       171  CHL1      C4              4.8839328415      -53.0950796310      -16.7396350000  MEMB      171             0.0000000000
     19966       171  CHL1      H4A             5.4709179643      -52.1614575473      -16.8742550000  MEMB      171             0.0000000000
     19967       171  CHL1      H4B             3.8757639864      -53.0409856237      -17.2032950000  MEMB      171             0.0000000000
     19968       171  CHL1      C5              4.6353322818      -53.3096638964      -15.2453650000  MEMB      171             0.0000000000
     19969       171  CHL1      C6              3.4007047468      -53.3799507107      -14.7201650000  MEMB      171             0.0000000000
     19970       171  CHL1      H6              2.5054042687      -53.3255406825      -15.3569350000  MEMB      171             0.0000000000
     19971       171  CHL1      C7              3.0699481519      -53.4355563599      -13.2129250000  MEMB      171             0.0000000000
     19972       171  CHL1      H7A             2.2643903884      -52.7215137585      -12.9381050000  MEMB      171             0.0000000000
     19973       171  CHL1      H7B             2.7000681727      -54.4798439213      -13.1293950000  MEMB      171             0.0000000000
     19974       171  CHL1      C8              4.3230431209      -53.2766238403      -12.3576850000  MEMB      171             0.0000000000
     19975       171  CHL1      H8              4.4741475390      -52.1889102965      -12.1891950000  MEMB      171             0.0000000000
     19976       171  CHL1      C14             4.0504101940      -53.9787389303      -11.0455750000  MEMB      171             0.0000000000
     19977       171  CHL1      H14             3.9768094563      -55.0722742892      -11.2274650000  MEMB      171             0.0000000000
     19978       171  CHL1      C15             2.7075151152      -53.5448908230      -10.3385150000  MEMB      171             0.0000000000
     19979       171  CHL1      H15A            2.5223839235      -52.4494449865      -10.3459750000  MEMB      171             0.0000000000
     19980       171  CHL1      H15B            1.7823450296      -54.0344622274      -10.7109450000  MEMB      171             0.0000000000
     19981       171  CHL1      C16             2.8841816758      -53.8701787491       -8.8657050000  MEMB      171             0.0000000000
     19982       171  CHL1      H16A            2.6221694682      -53.0841691384       -8.1255250000  MEMB      171             0.0000000000
     19983       171  CHL1      H16B            2.2981555464      -54.7636168506       -8.5613250000  MEMB      171             0.0000000000
     19984       171  CHL1      C17             4.4059868634      -54.2610316255       -8.7670650000  MEMB      171             0.0000000000
     19985       171  CHL1      H17             4.3509937126      -55.3590645738       -8.9271350000  MEMB      171             0.0000000000
     19986       171  CHL1      C13             5.0651290467      -53.7235438430       -9.9648950000  MEMB      171             0.0000000000
     19987       171  CHL1      C18             5.1910991265      -52.1916432811       -9.6109450000  MEMB      171             0.0000000000
     19988       171  CHL1      H18A            5.7181414009      -51.6520381715      -10.4266550000  MEMB      171             0.0000000000
     19989       171  CHL1      H18B            4.2137656284      -51.6799848525       -9.4792950000  MEMB      171             0.0000000000
     19990       171  CHL1      H18C            5.8552408391      -52.0283015753       -8.7354050000  MEMB      171             0.0000000000
     19991       171  CHL1      C12             6.3082037987      -54.5038991947      -10.5377550000  MEMB      171             0.0000000000
     19992       171  CHL1      H12A            7.2147192799      -54.5209724782       -9.8956750000  MEMB      171             0.0000000000
     19993       171  CHL1      H12B            5.9509036824      -55.5398022437      -10.7209350000  MEMB      171             0.0000000000
     19994       171  CHL1      C11             6.7273633121      -53.9636854806      -11.8741750000  MEMB      171             0.0000000000
     19995       171  CHL1      H11A            7.2249435206      -52.9724014657      -11.8103650000  MEMB      171             0.0000000000
     19996       171  CHL1      H11B            7.4411627339      -54.7149063127      -12.2747750000  MEMB      171             0.0000000000
     19997       171  CHL1      C9              5.5482803491      -54.0532137248      -12.9446550000  MEMB      171             0.0000000000
     19998       171  CHL1      H9              5.1560591788      -55.0921453846      -12.9779450000  MEMB      171             0.0000000000
     19999       171  CHL1      C10             5.9003682918      -53.6213918042      -14.4072050000  MEMB      171             0.0000000000
     20000       171  CHL1      C19             6.6496601274      -52.2663597386      -14.3755750000  MEMB      171             0.0000000000
     20001       171  CHL1      H19A            6.6102155052      -51.8011584975      -15.3837150000  MEMB      171             0.0000000000
     20002       171  CHL1      H19B            6.2798543602      -51.6666481768      -13.5165650000  MEMB      171             0.0000000000
     20003       171  CHL1      H19C            7.7102171508      -52.4764527149      -14.1198350000  MEMB      171             0.0000000000
     20004       171  CHL1      C1              6.7511859748      -54.7584819658      -15.0419050000  MEMB      171             0.0000000000
     20005       171  CHL1      H1A             7.7820478436      -54.8864464952      -14.6478650000  MEMB      171             0.0000000000
     20006       171  CHL1      H1B             6.2964169618      -55.7636914983      -14.9113550000  MEMB      171             0.0000000000
     20007       171  CHL1      C2              7.0315673894      -54.5607431645      -16.5445050000  MEMB      171             0.0000000000
     20008       171  CHL1      H2A             7.5637074477      -55.3573606017      -17.1071450000  MEMB      171             0.0000000000
     20009       171  CHL1      H2B             7.6797683253      -53.6595001901      -16.5881050000  MEMB      171             0.0000000000
     20010       171  CHL1      C20             5.0015532166      -54.0467397501       -7.3215250000  MEMB      171             0.0000000000
     20011       171  CHL1      H20             4.7806405147      -53.0271420698       -6.9395150000  MEMB      171             0.0000000000
     20012       171  CHL1      C21             6.5106049345      -54.2244325486       -7.2061850000  MEMB      171             0.0000000000
     20013       171  CHL1      H21A            6.8639630865      -54.9986166253       -7.9203850000  MEMB      171             0.0000000000
     20014       171  CHL1      H21B            6.9097289610      -54.5210632734       -6.2126950000  MEMB      171             0.0000000000
     20015       171  CHL1      H21C            6.9856586690      -53.2607405193       -7.4889250000  MEMB      171             0.0000000000
     20016       171  CHL1      C22             4.3284247263      -54.9975439707       -6.2798950000  MEMB      171             0.0000000000
     20017       171  CHL1      H22A            3.3310650289      -55.2331577039       -6.7089450000  MEMB      171             0.0000000000
     20018       171  CHL1      H22B            4.9609363455      -55.9097486294       -6.3260350000  MEMB      171             0.0000000000
     20019       171  CHL1      C23             4.1572156440      -54.2858794205       -4.8770350000  MEMB      171             0.0000000000
     20020       171  CHL1      H23A            5.1291225422      -54.2227810962       -4.3425050000  MEMB      171             0.0000000000
     20021       171  CHL1      H23B            3.7103326258      -53.2835487888       -5.0501050000  MEMB      171             0.0000000000
     20022       171  CHL1      C24             3.1220452682      -54.9961045071       -3.9713450000  MEMB      171             0.0000000000
     20023       171  CHL1      H24A            2.1301317065      -55.0754725091       -4.4654250000  MEMB      171             0.0000000000
     20024       171  CHL1      H24B            3.4144339797      -56.0287595247       -3.6842050000  MEMB      171             0.0000000000
     20025       171  CHL1      C25             2.9336821761      -54.2444329319       -2.6643750000  MEMB      171             0.0000000000
     20026       171  CHL1      H25             2.2891643586      -53.3400685349       -2.6964350000  MEMB      171             0.0000000000
     20027       171  CHL1      C26             2.1242009603      -55.0430040883       -1.7163650000  MEMB      171             0.0000000000
     20028       171  CHL1      H26A            2.6056554442      -56.0330931734       -1.5672250000  MEMB      171             0.0000000000
     20029       171  CHL1      H26B            2.0740595375      -54.5964272118       -0.7003050000  MEMB      171             0.0000000000
     20030       171  CHL1      H26C            1.1095752798      -55.0833848327       -2.1671650000  MEMB      171             0.0000000000
     20031       171  CHL1      C27             4.2582325113      -53.8781248709       -1.9440550000  MEMB      171             0.0000000000
     20032       171  CHL1      H27A            4.8660663173      -54.7532284442       -1.6293350000  MEMB      171             0.0000000000
     20033       171  CHL1      H27B            4.9459890886      -53.2921068190       -2.5904950000  MEMB      171             0.0000000000
     20034       171  CHL1      H27C            4.0570031405      -53.3044162731       -1.0141650000  MEMB      171             0.0000000000
     20035       172  CHL1      C3            -18.5404818890      -34.7919969273      -17.3101800000  MEMB      172             0.0000000000
     20036       172  CHL1      H3            -17.6329343983      -35.2857800580      -16.9016900000  MEMB      172             0.0000000000
     20037       172  CHL1      O3            -18.4486753110      -34.5516052727      -18.6898200000  MEMB      172             0.0000000000
     20038       172  CHL1      H3'           -18.1637078174      -33.6378864771      -18.7640300000  MEMB      172             0.0000000000
     20039       172  CHL1      C4            -19.7205580410      -35.7602877917      -16.9706400000  MEMB      172             0.0000000000
     20040       172  CHL1      H4A           -20.7012819163      -35.3118539460      -17.2378500000  MEMB      172             0.0000000000
     20041       172  CHL1      H4B           -19.5998482420      -36.6417050717      -17.6361000000  MEMB      172             0.0000000000
     20042       172  CHL1      C5            -19.6080537251      -36.1382236380      -15.4732300000  MEMB      172             0.0000000000
     20043       172  CHL1      C6            -19.2508108479      -37.3290966198      -15.0556300000  MEMB      172             0.0000000000
     20044       172  CHL1      H6            -19.0255957295      -38.0749161155      -15.8321800000  MEMB      172             0.0000000000
     20045       172  CHL1      C7            -19.0190937719      -37.6798508618      -13.5840100000  MEMB      172             0.0000000000
     20046       172  CHL1      H7A           -19.4636415496      -38.6889081675      -13.4480400000  MEMB      172             0.0000000000
     20047       172  CHL1      H7B           -17.9389401061      -37.7359369265      -13.3301700000  MEMB      172             0.0000000000
     20048       172  CHL1      C8            -19.6865945475      -36.6955329500      -12.5914400000  MEMB      172             0.0000000000
     20049       172  CHL1      H8            -20.7829034630      -36.7851905932      -12.4352700000  MEMB      172             0.0000000000
     20050       172  CHL1      C14           -19.1590163808      -36.9114439532      -11.1663400000  MEMB      172             0.0000000000
     20051       172  CHL1      H14           -18.0729901588      -36.6825360496      -11.2160900000  MEMB      172             0.0000000000
     20052       172  CHL1      C15           -19.2437716344      -38.3021658174      -10.4913300000  MEMB      172             0.0000000000
     20053       172  CHL1      H15A          -20.2714846484      -38.7228140659      -10.5256100000  MEMB      172             0.0000000000
     20054       172  CHL1      H15B          -18.5247663081      -39.0262051645      -10.9308000000  MEMB      172             0.0000000000
     20055       172  CHL1      C16           -18.9241611516      -37.9928922152       -8.9881800000  MEMB      172             0.0000000000
     20056       172  CHL1      H16A          -19.6631935999      -38.4753119778       -8.3133300000  MEMB      172             0.0000000000
     20057       172  CHL1      H16B          -17.9249466809      -38.2298606917       -8.5642200000  MEMB      172             0.0000000000
     20058       172  CHL1      C17           -18.9595791684      -36.4308789104       -8.8420300000  MEMB      172             0.0000000000
     20059       172  CHL1      H17           -17.8986051233      -36.1033056952       -8.8788000000  MEMB      172             0.0000000000
     20060       172  CHL1      C13           -19.6079660347      -35.8889375656      -10.0828500000  MEMB      172             0.0000000000
     20061       172  CHL1      C18           -21.1749165401      -35.8481851619       -9.8944400000  MEMB      172             0.0000000000
     20062       172  CHL1      H18A          -21.5262376627      -35.0889468360       -9.1633800000  MEMB      172             0.0000000000
     20063       172  CHL1      H18B          -21.6701015691      -35.6219737492      -10.8629100000  MEMB      172             0.0000000000
     20064       172  CHL1      H18C          -21.4023319228      -36.8938763074       -9.5958700000  MEMB      172             0.0000000000
     20065       172  CHL1      C12           -19.0102271678      -34.5577410316      -10.5535600000  MEMB      172             0.0000000000
     20066       172  CHL1      H12A          -19.2824515896      -33.6471215314       -9.9782400000  MEMB      172             0.0000000000
     20067       172  CHL1      H12B          -17.9129540921      -34.6788599281      -10.6785700000  MEMB      172             0.0000000000
     20068       172  CHL1      C11           -19.6331722714      -34.1693867084      -11.9596900000  MEMB      172             0.0000000000
     20069       172  CHL1      H11A          -20.7145506578      -33.9619748987      -11.8116700000  MEMB      172             0.0000000000
     20070       172  CHL1      H11B          -19.0559189783      -33.3001723689      -12.3412100000  MEMB      172             0.0000000000
     20071       172  CHL1      C9            -19.3304853893      -35.2840388702      -13.0266100000  MEMB      172             0.0000000000
     20072       172  CHL1      H9            -18.2429838530      -35.1149447204      -12.8747100000  MEMB      172             0.0000000000
     20073       172  CHL1      C10           -19.7467551127      -34.9460639257      -14.4852600000  MEMB      172             0.0000000000
     20074       172  CHL1      C19           -21.2692891733      -34.5992045376      -14.5115700000  MEMB      172             0.0000000000
     20075       172  CHL1      H19A          -21.5614249616      -33.8293522821      -13.7657100000  MEMB      172             0.0000000000
     20076       172  CHL1      H19B          -21.5485190386      -34.4361311328      -15.5744700000  MEMB      172             0.0000000000
     20077       172  CHL1      H19C          -21.9239966127      -35.4792972096      -14.3352000000  MEMB      172             0.0000000000
     20078       172  CHL1      C1            -18.9453911151      -33.7391285367      -14.9972500000  MEMB      172             0.0000000000
     20079       172  CHL1      H1A           -19.2707118834      -32.7743100790      -14.5527000000  MEMB      172             0.0000000000
     20080       172  CHL1      H1B           -17.8976215972      -33.9667753670      -14.7062600000  MEMB      172             0.0000000000
     20081       172  CHL1      C2            -18.8353223556      -33.5117384677      -16.5099200000  MEMB      172             0.0000000000
     20082       172  CHL1      H2A           -18.0732877215      -32.7265472739      -16.7025700000  MEMB      172             0.0000000000
     20083       172  CHL1      H2B           -19.8108765519      -33.0560497671      -16.7837100000  MEMB      172             0.0000000000
     20084       172  CHL1      C20           -19.4430925253      -35.9343017984       -7.4514500000  MEMB      172             0.0000000000
     20085       172  CHL1      H20           -20.5315597408      -36.1196071407       -7.3280400000  MEMB      172             0.0000000000
     20086       172  CHL1      C21           -19.2190012264      -34.4181899867       -7.4164000000  MEMB      172             0.0000000000
     20087       172  CHL1      H21A          -19.9134823570      -33.9657421275       -8.1562100000  MEMB      172             0.0000000000
     20088       172  CHL1      H21B          -18.1560807296      -34.2338921992       -7.6820200000  MEMB      172             0.0000000000
     20089       172  CHL1      H21C          -19.3420108252      -33.9807213928       -6.4025900000  MEMB      172             0.0000000000
     20090       172  CHL1      C22           -18.6999213588      -36.6267503326       -6.3139100000  MEMB      172             0.0000000000
     20091       172  CHL1      H22A          -18.6438091516      -37.7319083793       -6.4129500000  MEMB      172             0.0000000000
     20092       172  CHL1      H22B          -17.6409420794      -36.2928787834       -6.3515600000  MEMB      172             0.0000000000
     20093       172  CHL1      C23           -19.1018245157      -36.2800568866       -4.8523000000  MEMB      172             0.0000000000
     20094       172  CHL1      H23A          -18.1598291013      -36.4392267899       -4.2851700000  MEMB      172             0.0000000000
     20095       172  CHL1      H23B          -19.4268530053      -35.2240745217       -4.7357300000  MEMB      172             0.0000000000
     20096       172  CHL1      C24           -20.0820470535      -37.3209834481       -4.2082300000  MEMB      172             0.0000000000
     20097       172  CHL1      H24A          -21.0958471492      -36.9450122592       -4.4635300000  MEMB      172             0.0000000000
     20098       172  CHL1      H24B          -20.0512789956      -38.2895912620       -4.7515400000  MEMB      172             0.0000000000
     20099       172  CHL1      C25           -19.8970245496      -37.5738671929       -2.7343400000  MEMB      172             0.0000000000
     20100       172  CHL1      H25           -18.8568778021      -37.8560022014       -2.4645000000  MEMB      172             0.0000000000
     20101       172  CHL1      C26           -20.2194815124      -36.4669169533       -1.7736400000  MEMB      172             0.0000000000
     20102       172  CHL1      H26A          -19.7529250998      -36.4773392161       -0.7654100000  MEMB      172             0.0000000000
     20103       172  CHL1      H26B          -19.9574886271      -35.5093696239       -2.2724200000  MEMB      172             0.0000000000
     20104       172  CHL1      H26C          -21.3015482297      -36.2764705762       -1.6087700000  MEMB      172             0.0000000000
     20105       172  CHL1      C27           -20.9292327437      -38.6354902598       -2.4173800000  MEMB      172             0.0000000000
     20106       172  CHL1      H27A          -20.7408243833      -39.5328263742       -3.0447600000  MEMB      172             0.0000000000
     20107       172  CHL1      H27B          -20.7051813949      -38.9183994849       -1.3666200000  MEMB      172             0.0000000000
     20108       172  CHL1      H27C          -21.9795479975      -38.3240498801       -2.6022200000  MEMB      172             0.0000000000
     20109       173  CHL1      C3             56.8231313797       20.9979604250      -17.3574900000  MEMB      173             0.0000000000
     20110       173  CHL1      H3             56.8932695594       22.1024678539      -17.4547600000  MEMB      173             0.0000000000
     20111       173  CHL1      O3             56.7697146203       20.4500301750      -18.6425100000  MEMB      173             0.0000000000
     20112       173  CHL1      H3'            55.9866475269       20.7977924711      -19.0754900000  MEMB      173             0.0000000000
     20113       173  CHL1      C4             58.0927227793       20.4631311656      -16.6981000000  MEMB      173             0.0000000000
     20114       173  CHL1      H4A            58.0368387549       19.3611018724      -16.8274500000  MEMB      173             0.0000000000
     20115       173  CHL1      H4B            58.8911887866       20.8667596373      -17.3567700000  MEMB      173             0.0000000000
     20116       173  CHL1      C5             58.2292026130       20.7756392556      -15.2619400000  MEMB      173             0.0000000000
     20117       173  CHL1      C6             59.4104442232       21.2324230123      -14.8331000000  MEMB      173             0.0000000000
     20118       173  CHL1      H6             60.1990816180       21.3504256683      -15.5908100000  MEMB      173             0.0000000000
     20119       173  CHL1      C7             59.7800085014       21.6113158556      -13.4254300000  MEMB      173             0.0000000000
     20120       173  CHL1      H7A            60.7401767572       21.1055466459      -13.1875500000  MEMB      173             0.0000000000
     20121       173  CHL1      H7B            60.0430388372       22.6852905135      -13.5336300000  MEMB      173             0.0000000000
     20122       173  CHL1      C8             58.6447968430       21.1427646719      -12.4668500000  MEMB      173             0.0000000000
     20123       173  CHL1      H8             58.7620741464       20.0469221829      -12.3265400000  MEMB      173             0.0000000000
     20124       173  CHL1      C14            58.8006589517       21.8471578149      -11.1246300000  MEMB      173             0.0000000000
     20125       173  CHL1      H14            58.6253728209       22.9434943180      -11.1651500000  MEMB      173             0.0000000000
     20126       173  CHL1      C15            60.1635683784       21.7188212457      -10.4439300000  MEMB      173             0.0000000000
     20127       173  CHL1      H15A           60.4557549940       20.6503641824      -10.5296400000  MEMB      173             0.0000000000
     20128       173  CHL1      H15B           60.9585279418       22.3509628272      -10.8942200000  MEMB      173             0.0000000000
     20129       173  CHL1      C16            59.9521686519       21.9792770925       -9.0018400000  MEMB      173             0.0000000000
     20130       173  CHL1      H16A           60.3888965532       21.1247784754       -8.4420000000  MEMB      173             0.0000000000
     20131       173  CHL1      H16B           60.3203762174       22.9117569294       -8.5230500000  MEMB      173             0.0000000000
     20132       173  CHL1      C17            58.3489030279       22.0212162395       -8.8242700000  MEMB      173             0.0000000000
     20133       173  CHL1      H17            58.1075456019       23.1018289883       -8.9156100000  MEMB      173             0.0000000000
     20134       173  CHL1      C13            57.8004638951       21.3406084245      -10.0411300000  MEMB      173             0.0000000000
     20135       173  CHL1      C18            57.8778204093       19.7649349608       -9.7515500000  MEMB      173             0.0000000000
     20136       173  CHL1      H18A           58.9233439406       19.4484693259       -9.5489600000  MEMB      173             0.0000000000
     20137       173  CHL1      H18B           57.1756439189       19.4666303304       -8.9439100000  MEMB      173             0.0000000000
     20138       173  CHL1      H18C           57.5474966213       19.2259760882      -10.6651900000  MEMB      173             0.0000000000
     20139       173  CHL1      C12            56.4486883267       21.7587896758      -10.5318600000  MEMB      173             0.0000000000
     20140       173  CHL1      H12A           55.6537661067       21.4965422852       -9.8013500000  MEMB      173             0.0000000000
     20141       173  CHL1      H12B           56.3343403406       22.8594331751      -10.6310500000  MEMB      173             0.0000000000
     20142       173  CHL1      C11            56.1733830774       21.2108831110      -11.9816900000  MEMB      173             0.0000000000
     20143       173  CHL1      H11A           56.1355068305       20.1015853068      -11.9331100000  MEMB      173             0.0000000000
     20144       173  CHL1      H11B           55.1783121271       21.5888436731      -12.2999700000  MEMB      173             0.0000000000
     20145       173  CHL1      C9             57.2768960235       21.4407058301      -13.0468200000  MEMB      173             0.0000000000
     20146       173  CHL1      H9             57.2416515095       22.4926921170      -13.4023200000  MEMB      173             0.0000000000
     20147       173  CHL1      C10            57.0245100251       20.5599473715      -14.3814700000  MEMB      173             0.0000000000
     20148       173  CHL1      C19            56.8484820446       19.0245027130      -14.1178900000  MEMB      173             0.0000000000
     20149       173  CHL1      H19A           57.0442065304       18.4441624132      -15.0448400000  MEMB      173             0.0000000000
     20150       173  CHL1      H19B           57.4933861120       18.6999194665      -13.2734500000  MEMB      173             0.0000000000
     20151       173  CHL1      H19C           55.7746164443       18.9039168805      -13.8598400000  MEMB      173             0.0000000000
     20152       173  CHL1      C1             55.7311524592       21.1699906013      -15.0713800000  MEMB      173             0.0000000000
     20153       173  CHL1      H1A            54.8254944644       21.0708692376      -14.4355500000  MEMB      173             0.0000000000
     20154       173  CHL1      H1B            55.8359910665       22.2705459524      -15.1813500000  MEMB      173             0.0000000000
     20155       173  CHL1      C2             55.6426796605       20.5793194025      -16.4228100000  MEMB      173             0.0000000000
     20156       173  CHL1      H2A            54.7710658124       21.0533054128      -16.9227600000  MEMB      173             0.0000000000
     20157       173  CHL1      H2B            55.5122990658       19.4760152732      -16.4284300000  MEMB      173             0.0000000000
     20158       173  CHL1      C20            57.9219785638       21.6208705343       -7.3863300000  MEMB      173             0.0000000000
     20159       173  CHL1      H20            58.2662899883       20.5822687687       -7.1937400000  MEMB      173             0.0000000000
     20160       173  CHL1      C21            56.3779541862       21.6585108751       -7.1454500000  MEMB      173             0.0000000000
     20161       173  CHL1      H21A           55.8463470122       20.9454657103       -7.8112400000  MEMB      173             0.0000000000
     20162       173  CHL1      H21B           56.0879647139       22.6765102813       -7.4829600000  MEMB      173             0.0000000000
     20163       173  CHL1      H21C           56.1751116134       21.4742445075       -6.0687800000  MEMB      173             0.0000000000
     20164       173  CHL1      C22            58.6441345713       22.4429080901       -6.3539800000  MEMB      173             0.0000000000
     20165       173  CHL1      H22A           59.0952615562       23.3053712684       -6.8896700000  MEMB      173             0.0000000000
     20166       173  CHL1      H22B           57.8359321880       22.8472074537       -5.7077100000  MEMB      173             0.0000000000
     20167       173  CHL1      C23            59.7584941681       21.6817422851       -5.5807700000  MEMB      173             0.0000000000
     20168       173  CHL1      H23A           60.4123426104       21.0469165001       -6.2162100000  MEMB      173             0.0000000000
     20169       173  CHL1      H23B           60.5014600993       22.4540636023       -5.2877900000  MEMB      173             0.0000000000
     20170       173  CHL1      C24            59.3506987128       20.7752925515       -4.4115400000  MEMB      173             0.0000000000
     20171       173  CHL1      H24A           58.6461715533       21.3525170532       -3.7753200000  MEMB      173             0.0000000000
     20172       173  CHL1      H24B           58.8483668986       19.8696658323       -4.8138200000  MEMB      173             0.0000000000
     20173       173  CHL1      C25            60.4237783101       20.1773409819       -3.6148000000  MEMB      173             0.0000000000
     20174       173  CHL1      H25            61.0947706717       19.6938872995       -4.3566800000  MEMB      173             0.0000000000
     20175       173  CHL1      C26            61.2274012809       21.2549311897       -2.8541800000  MEMB      173             0.0000000000
     20176       173  CHL1      H26A           61.9670452238       20.8923923140       -2.1086500000  MEMB      173             0.0000000000
     20177       173  CHL1      H26B           61.8021382578       21.7082234251       -3.6899700000  MEMB      173             0.0000000000
     20178       173  CHL1      H26C           60.4958275559       21.9971249645       -2.4691100000  MEMB      173             0.0000000000
     20179       173  CHL1      C27            59.8674357728       19.2775033464       -2.5451100000  MEMB      173             0.0000000000
     20180       173  CHL1      H27A           59.5059705436       19.7959031711       -1.6313700000  MEMB      173             0.0000000000
     20181       173  CHL1      H27B           58.9097774488       18.8731637373       -2.9371700000  MEMB      173             0.0000000000
     20182       173  CHL1      H27C           60.6043113453       18.4667114483       -2.3608400000  MEMB      173             0.0000000000
     20183       174  CHL1      C3            -46.3704480842       21.6247926352      -17.4364750000  MEMB      174             0.0000000000
     20184       174  CHL1      H3            -47.3507275605       22.0427690071      -17.7506150000  MEMB      174             0.0000000000
     20185       174  CHL1      O3            -45.7654373158       20.9486909648      -18.5635250000  MEMB      174             0.0000000000
     20186       174  CHL1      H3'           -46.2800072606       20.1697210144      -18.7871850000  MEMB      174             0.0000000000
     20187       174  CHL1      C4            -45.4579347965       22.8081417082      -16.9268050000  MEMB      174             0.0000000000
     20188       174  CHL1      H4A           -44.4253756702       22.4316210307      -16.7643950000  MEMB      174             0.0000000000
     20189       174  CHL1      H4B           -45.4557627807       23.4502291747      -17.8334650000  MEMB      174             0.0000000000
     20190       174  CHL1      C5            -45.9146562700       23.4694611046      -15.6199550000  MEMB      174             0.0000000000
     20191       174  CHL1      C6            -45.8659724315       24.7783908761      -15.4848850000  MEMB      174             0.0000000000
     20192       174  CHL1      H6            -45.3425023525       25.3928537159      -16.2321550000  MEMB      174             0.0000000000
     20193       174  CHL1      C7            -46.2964241158       25.5327418929      -14.2370350000  MEMB      174             0.0000000000
     20194       174  CHL1      H7A           -45.5340102587       26.2749309519      -13.9173450000  MEMB      174             0.0000000000
     20195       174  CHL1      H7B           -47.2818998105       26.0150191459      -14.4119350000  MEMB      174             0.0000000000
     20196       174  CHL1      C8            -46.5063611997       24.6041365103      -13.0037450000  MEMB      174             0.0000000000
     20197       174  CHL1      H8            -45.4957153066       24.3297275168      -12.6327650000  MEMB      174             0.0000000000
     20198       174  CHL1      C14           -47.3010405019       25.2839542774      -11.9355750000  MEMB      174             0.0000000000
     20199       174  CHL1      H14           -48.3046686572       25.3738909761      -12.4035150000  MEMB      174             0.0000000000
     20200       174  CHL1      C15           -46.7403197522       26.6445779966      -11.4328450000  MEMB      174             0.0000000000
     20201       174  CHL1      H15A          -45.6335041495       26.5602611573      -11.3862450000  MEMB      174             0.0000000000
     20202       174  CHL1      H15B          -46.9047324263       27.5103739121      -12.1093750000  MEMB      174             0.0000000000
     20203       174  CHL1      C16           -47.3530393389       26.8737797429      -10.0585650000  MEMB      174             0.0000000000
     20204       174  CHL1      H16A          -46.5982928653       27.1039402230       -9.2764550000  MEMB      174             0.0000000000
     20205       174  CHL1      H16B          -48.1599000472       27.6334355225      -10.1374750000  MEMB      174             0.0000000000
     20206       174  CHL1      C17           -48.1087514027       25.5837675500       -9.8146050000  MEMB      174             0.0000000000
     20207       174  CHL1      H17           -49.1461327172       25.7436076766      -10.1787450000  MEMB      174             0.0000000000
     20208       174  CHL1      C13           -47.4732252381       24.4797599838      -10.7180350000  MEMB      174             0.0000000000
     20209       174  CHL1      C18           -46.0836067587       24.0773972398      -10.1046950000  MEMB      174             0.0000000000
     20210       174  CHL1      H18A          -46.3169042683       23.5691700644       -9.1446950000  MEMB      174             0.0000000000
     20211       174  CHL1      H18B          -45.4630736693       23.4013246820      -10.7309550000  MEMB      174             0.0000000000
     20212       174  CHL1      H18C          -45.5724686614       25.0240756194       -9.8274850000  MEMB      174             0.0000000000
     20213       174  CHL1      C12           -48.3341579977       23.2508767959      -11.0628050000  MEMB      174             0.0000000000
     20214       174  CHL1      H12A          -48.4543846450       22.5379952723      -10.2192050000  MEMB      174             0.0000000000
     20215       174  CHL1      H12B          -49.3651163176       23.6504172783      -11.1714950000  MEMB      174             0.0000000000
     20216       174  CHL1      C11           -47.7695734914       22.4360801196      -12.2505650000  MEMB      174             0.0000000000
     20217       174  CHL1      H11A          -46.9712251417       21.7583805097      -11.8795050000  MEMB      174             0.0000000000
     20218       174  CHL1      H11B          -48.6227501536       21.7649978007      -12.4873150000  MEMB      174             0.0000000000
     20219       174  CHL1      C9            -47.2602554561       23.3223891329      -13.4716650000  MEMB      174             0.0000000000
     20220       174  CHL1      H9            -48.1931694268       23.6512122554      -13.9774850000  MEMB      174             0.0000000000
     20221       174  CHL1      C10           -46.4708913648       22.5677176483      -14.5318950000  MEMB      174             0.0000000000
     20222       174  CHL1      C19           -45.2123589358       21.9478298550      -13.8700350000  MEMB      174             0.0000000000
     20223       174  CHL1      H19A          -44.5645508627       22.6422657415      -13.2934750000  MEMB      174             0.0000000000
     20224       174  CHL1      H19B          -45.5012985545       21.0784019318      -13.2415950000  MEMB      174             0.0000000000
     20225       174  CHL1      H19C          -44.5838050987       21.3959224908      -14.6012250000  MEMB      174             0.0000000000
     20226       174  CHL1      C1            -47.3922721962       21.4600388526      -15.1192350000  MEMB      174             0.0000000000
     20227       174  CHL1      H1A           -47.7272299543       20.7490930516      -14.3339550000  MEMB      174             0.0000000000
     20228       174  CHL1      H1B           -48.3415211354       21.9330544275      -15.4501550000  MEMB      174             0.0000000000
     20229       174  CHL1      C2            -46.8328790788       20.6805088005      -16.3146850000  MEMB      174             0.0000000000
     20230       174  CHL1      H2A           -47.6062103416       19.9389750665      -16.6086250000  MEMB      174             0.0000000000
     20231       174  CHL1      H2B           -46.0027409153       20.0773473140      -15.8887850000  MEMB      174             0.0000000000
     20232       174  CHL1      C20           -48.3725199289       25.2604738705       -8.3225150000  MEMB      174             0.0000000000
     20233       174  CHL1      H20           -47.3497912848       25.1644085888       -7.8992850000  MEMB      174             0.0000000000
     20234       174  CHL1      C21           -49.2119063475       23.9180997416       -8.0945550000  MEMB      174             0.0000000000
     20235       174  CHL1      H21A          -50.0826933549       23.8622594894       -8.7822450000  MEMB      174             0.0000000000
     20236       174  CHL1      H21B          -49.5845883766       23.7883941163       -7.0560050000  MEMB      174             0.0000000000
     20237       174  CHL1      H21C          -48.4300153875       23.1550244776       -8.2962650000  MEMB      174             0.0000000000
     20238       174  CHL1      C22           -49.1349260523       26.4182196619       -7.6729350000  MEMB      174             0.0000000000
     20239       174  CHL1      H22A          -48.4525784736       27.2919763354       -7.7454350000  MEMB      174             0.0000000000
     20240       174  CHL1      H22B          -50.0700411977       26.7117743037       -8.1961150000  MEMB      174             0.0000000000
     20241       174  CHL1      C23           -49.4599704322       26.2052654920       -6.1585950000  MEMB      174             0.0000000000
     20242       174  CHL1      H23A          -50.1843221680       25.3723404211       -6.0326450000  MEMB      174             0.0000000000
     20243       174  CHL1      H23B          -48.5455337026       25.8600567001       -5.6304250000  MEMB      174             0.0000000000
     20244       174  CHL1      C24           -50.0069813097       27.5373969703       -5.4058350000  MEMB      174             0.0000000000
     20245       174  CHL1      H24A          -49.3486489255       28.3994391170       -5.6462650000  MEMB      174             0.0000000000
     20246       174  CHL1      H24B          -50.9118603184       27.6834891720       -6.0336650000  MEMB      174             0.0000000000
     20247       174  CHL1      C25           -50.5838135003       27.3567637067       -4.0246550000  MEMB      174             0.0000000000
     20248       174  CHL1      H25           -51.2747392201       26.4884225937       -3.9704450000  MEMB      174             0.0000000000
     20249       174  CHL1      C26           -49.6240095187       27.0024539346       -2.9081450000  MEMB      174             0.0000000000
     20250       174  CHL1      H26A          -50.1569651865       26.9016561772       -1.9385450000  MEMB      174             0.0000000000
     20251       174  CHL1      H26B          -48.9597616186       26.1236781841       -3.0525450000  MEMB      174             0.0000000000
     20252       174  CHL1      H26C          -48.9184270947       27.8592581581       -2.9567150000  MEMB      174             0.0000000000
     20253       174  CHL1      C27           -51.2899176587       28.6979424448       -3.5800250000  MEMB      174             0.0000000000
     20254       174  CHL1      H27A          -51.3899720720       28.6623988141       -2.4741150000  MEMB      174             0.0000000000
     20255       174  CHL1      H27B          -50.6549892896       29.5467717124       -3.9127150000  MEMB      174             0.0000000000
     20256       174  CHL1      H27C          -52.3038396106       28.6532956128       -4.0320150000  MEMB      174             0.0000000000
     20257       175  CHL1      C3             27.0124725599      -43.6211033532      -17.3072000000  MEMB      175             0.0000000000
     20258       175  CHL1      H3             27.0505583045      -42.5494935547      -17.0164600000  MEMB      175             0.0000000000
     20259       175  CHL1      O3             26.8445312401      -43.8280824468      -18.6928000000  MEMB      175             0.0000000000
     20260       175  CHL1      H3'            26.2062493251      -43.1526140602      -18.9335500000  MEMB      175             0.0000000000
     20261       175  CHL1      C4             28.3251109862      -44.3198503028      -16.8885900000  MEMB      175             0.0000000000
     20262       175  CHL1      H4A            28.2389938225      -45.3388345221      -17.3228300000  MEMB      175             0.0000000000
     20263       175  CHL1      H4B            29.1583789309      -43.8706637869      -17.4701600000  MEMB      175             0.0000000000
     20264       175  CHL1      C5             28.5053608318      -44.3519325975      -15.3690500000  MEMB      175             0.0000000000
     20265       175  CHL1      C6             29.5194277517      -43.7830934598      -14.7399300000  MEMB      175             0.0000000000
     20266       175  CHL1      H6             30.2864522567      -43.2443458965      -15.3156200000  MEMB      175             0.0000000000
     20267       175  CHL1      C7             29.7172942076      -43.6987782671      -13.2523800000  MEMB      175             0.0000000000
     20268       175  CHL1      H7A            30.7455788506      -43.9712340060      -12.9319000000  MEMB      175             0.0000000000
     20269       175  CHL1      H7B            29.3618654322      -42.7023412809      -12.9131100000  MEMB      175             0.0000000000
     20270       175  CHL1      C8             28.7788644683      -44.6522686940      -12.4470500000  MEMB      175             0.0000000000
     20271       175  CHL1      H8             29.2268016258      -45.6540030876      -12.6208800000  MEMB      175             0.0000000000
     20272       175  CHL1      C14            28.7018853322      -44.1846710652      -11.0002200000  MEMB      175             0.0000000000
     20273       175  CHL1      H14            28.1302045816      -43.2325430874      -10.9691100000  MEMB      175             0.0000000000
     20274       175  CHL1      C15            29.9510618811      -43.8869441263      -10.1530300000  MEMB      175             0.0000000000
     20275       175  CHL1      H15A           30.6926187403      -44.7127460885      -10.2027000000  MEMB      175             0.0000000000
     20276       175  CHL1      H15B           30.4040569271      -42.9117284384      -10.4324600000  MEMB      175             0.0000000000
     20277       175  CHL1      C16            29.3799563392      -43.8058358346       -8.7240500000  MEMB      175             0.0000000000
     20278       175  CHL1      H16A           30.1045746074      -44.3989354490       -8.1261500000  MEMB      175             0.0000000000
     20279       175  CHL1      H16B           29.2723414842      -42.7591202068       -8.3674900000  MEMB      175             0.0000000000
     20280       175  CHL1      C17            27.9091154652      -44.3571070816       -8.8321400000  MEMB      175             0.0000000000
     20281       175  CHL1      H17            27.2556698930      -43.4742876807       -8.9993800000  MEMB      175             0.0000000000
     20282       175  CHL1      C13            27.8675547005      -45.0831507634      -10.1906700000  MEMB      175             0.0000000000
     20283       175  CHL1      C18            28.6080428586      -46.4215820899      -10.0352300000  MEMB      175             0.0000000000
     20284       175  CHL1      H18A           29.4834768403      -46.3888455006       -9.3519500000  MEMB      175             0.0000000000
     20285       175  CHL1      H18B           27.9563737592      -47.1668128185       -9.5309900000  MEMB      175             0.0000000000
     20286       175  CHL1      H18C           28.8096884877      -47.0156633856      -10.9521400000  MEMB      175             0.0000000000
     20287       175  CHL1      C12            26.3986541385      -45.0644444221      -10.7626500000  MEMB      175             0.0000000000
     20288       175  CHL1      H12A           25.8662250350      -45.8063327189      -10.1298400000  MEMB      175             0.0000000000
     20289       175  CHL1      H12B           25.9415829766      -44.0571495459      -10.6588100000  MEMB      175             0.0000000000
     20290       175  CHL1      C11            26.4497205808      -45.5221132641      -12.2173100000  MEMB      175             0.0000000000
     20291       175  CHL1      H11A           26.5525121905      -46.6277486068      -12.2536800000  MEMB      175             0.0000000000
     20292       175  CHL1      H11B           25.4541143485      -45.3292422297      -12.6710500000  MEMB      175             0.0000000000
     20293       175  CHL1      C9             27.3832940742      -44.6971325788      -13.1220900000  MEMB      175             0.0000000000
     20294       175  CHL1      H9             26.9938727158      -43.6621253607      -13.0152300000  MEMB      175             0.0000000000
     20295       175  CHL1      C10            27.2942157668      -44.9948123637      -14.6353700000  MEMB      175             0.0000000000
     20296       175  CHL1      C19            27.3017596606      -46.5693185884      -14.9143000000  MEMB      175             0.0000000000
     20297       175  CHL1      H19A           28.2258006207      -46.9535230185      -14.4317500000  MEMB      175             0.0000000000
     20298       175  CHL1      H19B           26.4319167511      -47.0929666249      -14.4632100000  MEMB      175             0.0000000000
     20299       175  CHL1      H19C           27.2837904444      -46.7714980741      -16.0066000000  MEMB      175             0.0000000000
     20300       175  CHL1      C1             26.0593418308      -44.2004379779      -15.0941700000  MEMB      175             0.0000000000
     20301       175  CHL1      H1A            25.1934160355      -44.6350549575      -14.5504700000  MEMB      175             0.0000000000
     20302       175  CHL1      H1B            26.1593957307      -43.1364168384      -14.7905900000  MEMB      175             0.0000000000
     20303       175  CHL1      C2             25.7502829604      -44.2136237121      -16.5607200000  MEMB      175             0.0000000000
     20304       175  CHL1      H2A            24.7569183104      -43.8092416950      -16.8506200000  MEMB      175             0.0000000000
     20305       175  CHL1      H2B            25.6426950954      -45.3074060944      -16.7231900000  MEMB      175             0.0000000000
     20306       175  CHL1      C20            27.3241457897      -45.0219849774       -7.4923000000  MEMB      175             0.0000000000
     20307       175  CHL1      H20            27.9106359346      -45.9367180941       -7.2607600000  MEMB      175             0.0000000000
     20308       175  CHL1      C21            25.8650314754      -45.3864438672       -7.6251100000  MEMB      175             0.0000000000
     20309       175  CHL1      H21A           25.4362962465      -45.5169572015       -6.6085200000  MEMB      175             0.0000000000
     20310       175  CHL1      H21B           25.6565668393      -46.4067907985       -8.0121100000  MEMB      175             0.0000000000
     20311       175  CHL1      H21C           25.2776144702      -44.6316301534       -8.1903600000  MEMB      175             0.0000000000
     20312       175  CHL1      C22            27.5276867921      -44.1162604711       -6.3217700000  MEMB      175             0.0000000000
     20313       175  CHL1      H22A           28.5761763178      -43.7497375293       -6.2961100000  MEMB      175             0.0000000000
     20314       175  CHL1      H22B           26.8860971157      -43.2103653203       -6.3666800000  MEMB      175             0.0000000000
     20315       175  CHL1      C23            27.3148922652      -44.8413641115       -5.0144500000  MEMB      175             0.0000000000
     20316       175  CHL1      H23A           26.2271070493      -44.7784008193       -4.7975000000  MEMB      175             0.0000000000
     20317       175  CHL1      H23B           27.5339354115      -45.9248348968       -5.1260200000  MEMB      175             0.0000000000
     20318       175  CHL1      C24            28.2275282852      -44.3327732655       -3.9341000000  MEMB      175             0.0000000000
     20319       175  CHL1      H24A           29.2762908334      -44.4709560034       -4.2736700000  MEMB      175             0.0000000000
     20320       175  CHL1      H24B           28.1516900161      -43.2504681593       -3.6949500000  MEMB      175             0.0000000000
     20321       175  CHL1      C25            27.9348975520      -44.9845999828       -2.5790100000  MEMB      175             0.0000000000
     20322       175  CHL1      H25            27.8138470265      -46.0827581361       -2.6962000000  MEMB      175             0.0000000000
     20323       175  CHL1      C26            29.0965524995      -44.7061083496       -1.5445500000  MEMB      175             0.0000000000
     20324       175  CHL1      H26A           30.0230611747      -45.1119864707       -2.0040700000  MEMB      175             0.0000000000
     20325       175  CHL1      H26B           29.2028184372      -43.6250000633       -1.3116900000  MEMB      175             0.0000000000
     20326       175  CHL1      H26C           28.8698980573      -45.2875043042       -0.6253500000  MEMB      175             0.0000000000
     20327       175  CHL1      C27            26.7353716467      -44.2355007571       -2.0053700000  MEMB      175             0.0000000000
     20328       175  CHL1      H27A           25.8497559797      -44.3773583722       -2.6610300000  MEMB      175             0.0000000000
     20329       175  CHL1      H27B           26.6231987873      -44.6444419359       -0.9784800000  MEMB      175             0.0000000000
     20330       175  CHL1      H27C           26.9579900071      -43.1520925937       -1.9005200000  MEMB      175             0.0000000000
     20331       176  CHL1      C3             42.0997738115      -48.3130687880      -17.3291250000  MEMB      176             0.0000000000
     20332       176  CHL1      H3             42.7743909541      -47.4343635351      -17.2449050000  MEMB      176             0.0000000000
     20333       176  CHL1      O3             42.1656247885      -48.7377388120      -18.6708750000  MEMB      176             0.0000000000
     20334       176  CHL1      H3'            41.7200448708      -48.0480429154      -19.1682450000  MEMB      176             0.0000000000
     20335       176  CHL1      C4             42.4632119416      -49.4800337405      -16.4670150000  MEMB      176             0.0000000000
     20336       176  CHL1      H4A            41.9877712708      -50.4603417965      -16.6844550000  MEMB      176             0.0000000000
     20337       176  CHL1      H4B            43.5523525784      -49.6743725662      -16.5686250000  MEMB      176             0.0000000000
     20338       176  CHL1      C5             42.2363148568      -49.1966835453      -15.0152450000  MEMB      176             0.0000000000
     20339       176  CHL1      C6             43.1995467702      -49.1507845090      -14.0300750000  MEMB      176             0.0000000000
     20340       176  CHL1      H6             44.2541779946      -49.3536560577      -14.2679650000  MEMB      176             0.0000000000
     20341       176  CHL1      C7             43.0122474480      -48.9530746670      -12.5515350000  MEMB      176             0.0000000000
     20342       176  CHL1      H7A            43.6171457585      -49.7556815295      -12.0779950000  MEMB      176             0.0000000000
     20343       176  CHL1      H7B            43.3735903928      -47.9349714816      -12.2922850000  MEMB      176             0.0000000000
     20344       176  CHL1      C8             41.5253613432      -49.0255318375      -12.1652150000  MEMB      176             0.0000000000
     20345       176  CHL1      H8             41.2234183322      -50.0942748715      -12.1344850000  MEMB      176             0.0000000000
     20346       176  CHL1      C14            41.2652961905      -48.4776747425      -10.8261450000  MEMB      176             0.0000000000
     20347       176  CHL1      H14            41.4876624784      -47.3904807348      -10.8797750000  MEMB      176             0.0000000000
     20348       176  CHL1      C15            42.1726935934      -48.8989137024       -9.6407050000  MEMB      176             0.0000000000
     20349       176  CHL1      H15A           42.2306759701      -49.9993521513       -9.4992550000  MEMB      176             0.0000000000
     20350       176  CHL1      H15B           43.2301470673      -48.5684928666       -9.7240450000  MEMB      176             0.0000000000
     20351       176  CHL1      C16            41.4491337258      -48.3903689676       -8.4601750000  MEMB      176             0.0000000000
     20352       176  CHL1      H16A           41.1487199237      -49.2320381138       -7.8001250000  MEMB      176             0.0000000000
     20353       176  CHL1      H16B           41.8974930236      -47.5229406362       -7.9302050000  MEMB      176             0.0000000000
     20354       176  CHL1      C17            40.0534062697      -47.8629273880       -8.9376150000  MEMB      176             0.0000000000
     20355       176  CHL1      H17            40.1618462417      -46.7781502284       -9.1516650000  MEMB      176             0.0000000000
     20356       176  CHL1      C13            39.7865024658      -48.4827929036      -10.2970850000  MEMB      176             0.0000000000
     20357       176  CHL1      C18            39.3485966873      -49.9596864741      -10.1955350000  MEMB      176             0.0000000000
     20358       176  CHL1      H18A           40.1628562683      -50.5487451666       -9.7219150000  MEMB      176             0.0000000000
     20359       176  CHL1      H18B           38.3829790212      -50.1638045529       -9.6853850000  MEMB      176             0.0000000000
     20360       176  CHL1      H18C           39.0776375719      -50.4348296540      -11.1625650000  MEMB      176             0.0000000000
     20361       176  CHL1      C12            38.9013138335      -47.6700830321      -11.3055950000  MEMB      176             0.0000000000
     20362       176  CHL1      H12A           37.8160652098      -47.7350895251      -11.0768450000  MEMB      176             0.0000000000
     20363       176  CHL1      H12B           39.1942470119      -46.5984231303      -11.2983450000  MEMB      176             0.0000000000
     20364       176  CHL1      C11            39.1698151385      -48.1845854718      -12.7011150000  MEMB      176             0.0000000000
     20365       176  CHL1      H11A           38.6255534766      -49.1498020670      -12.7814150000  MEMB      176             0.0000000000
     20366       176  CHL1      H11B           38.6363554918      -47.5670733194      -13.4550550000  MEMB      176             0.0000000000
     20367       176  CHL1      C9             40.5977323832      -48.3471488772      -13.1956850000  MEMB      176             0.0000000000
     20368       176  CHL1      H9             41.0004593384      -47.3166338839      -13.2964550000  MEMB      176             0.0000000000
     20369       176  CHL1      C10            40.7962383784      -48.8572716943      -14.6531550000  MEMB      176             0.0000000000
     20370       176  CHL1      C19            39.8783208725      -50.1138412849      -14.8956150000  MEMB      176             0.0000000000
     20371       176  CHL1      H19A           40.1587779533      -50.7991117176      -14.0673250000  MEMB      176             0.0000000000
     20372       176  CHL1      H19B           38.8085830200      -49.8658698482      -14.7268250000  MEMB      176             0.0000000000
     20373       176  CHL1      H19C           39.9944149603      -50.5651971893      -15.9041350000  MEMB      176             0.0000000000
     20374       176  CHL1      C1             40.3924625920      -47.6559988885      -15.5845150000  MEMB      176             0.0000000000
     20375       176  CHL1      H1A            39.3041041491      -47.4393163574      -15.5310350000  MEMB      176             0.0000000000
     20376       176  CHL1      H1B            41.0441443961      -46.8297799219      -15.2281550000  MEMB      176             0.0000000000
     20377       176  CHL1      C2             40.6155643248      -47.8995695940      -17.1289150000  MEMB      176             0.0000000000
     20378       176  CHL1      H2A            40.5785480407      -46.9050632053      -17.6227850000  MEMB      176             0.0000000000
     20379       176  CHL1      H2B            39.8804132888      -48.5697701094      -17.6236150000  MEMB      176             0.0000000000
     20380       176  CHL1      C20            39.0615843362      -47.8290013103       -7.7859850000  MEMB      176             0.0000000000
     20381       176  CHL1      H20            39.0046992471      -48.8400651329       -7.3290050000  MEMB      176             0.0000000000
     20382       176  CHL1      C21            37.6375887399      -47.4800904155       -8.2850550000  MEMB      176             0.0000000000
     20383       176  CHL1      H21A           37.6168389173      -46.5526359189       -8.8963850000  MEMB      176             0.0000000000
     20384       176  CHL1      H21B           36.9693801131      -47.3845019974       -7.4026250000  MEMB      176             0.0000000000
     20385       176  CHL1      H21C           37.2556283439      -48.3690818136       -8.8310550000  MEMB      176             0.0000000000
     20386       176  CHL1      C22            39.6033492336      -47.0144837723       -6.5570950000  MEMB      176             0.0000000000
     20387       176  CHL1      H22A           40.5411614756      -47.5139048809       -6.2324350000  MEMB      176             0.0000000000
     20388       176  CHL1      H22B           39.9318604518      -46.0013882043       -6.8733950000  MEMB      176             0.0000000000
     20389       176  CHL1      C23            38.8294850413      -47.0606750906       -5.3166750000  MEMB      176             0.0000000000
     20390       176  CHL1      H23A           38.1425057898      -47.9338144867       -5.3184150000  MEMB      176             0.0000000000
     20391       176  CHL1      H23B           39.5130374369      -47.3216280859       -4.4806250000  MEMB      176             0.0000000000
     20392       176  CHL1      C24            38.0440285400      -45.8755194774       -4.9279150000  MEMB      176             0.0000000000
     20393       176  CHL1      H24A           38.7979930833      -45.3027392317       -4.3467250000  MEMB      176             0.0000000000
     20394       176  CHL1      H24B           37.6879786369      -45.2245751355       -5.7548350000  MEMB      176             0.0000000000
     20395       176  CHL1      C25            36.7909026731      -46.0169199178       -4.0424250000  MEMB      176             0.0000000000
     20396       176  CHL1      H25            36.2211349013      -45.0660956874       -4.1173850000  MEMB      176             0.0000000000
     20397       176  CHL1      C26            35.8705778047      -47.1813071115       -4.3450450000  MEMB      176             0.0000000000
     20398       176  CHL1      H26A           35.4346167123      -47.1524053667       -5.3665250000  MEMB      176             0.0000000000
     20399       176  CHL1      H26B           36.3377191593      -48.1890925901       -4.3235150000  MEMB      176             0.0000000000
     20400       176  CHL1      H26C           34.9591957871      -47.1110738108       -3.7135650000  MEMB      176             0.0000000000
     20401       176  CHL1      C27            37.2529370027      -46.4706447185       -2.6158050000  MEMB      176             0.0000000000
     20402       176  CHL1      H27A           38.1298115887      -47.1498191475       -2.5514850000  MEMB      176             0.0000000000
     20403       176  CHL1      H27B           37.4999045748      -45.5975387629       -1.9746950000  MEMB      176             0.0000000000
     20404       176  CHL1      H27C           36.3682244985      -46.9355064745       -2.1305250000  MEMB      176             0.0000000000
     20405       177  CHL1      C3             39.9209508095       45.4807405303      -17.3007100000  MEMB      177             0.0000000000
     20406       177  CHL1      H3             40.2046939361       46.5341657807      -17.0907100000  MEMB      177             0.0000000000
     20407       177  CHL1      O3             40.0760077905       45.2139312697      -18.6992900000  MEMB      177             0.0000000000
     20408       177  CHL1      H3'            39.3462071176       45.6775018106      -19.1165400000  MEMB      177             0.0000000000
     20409       177  CHL1      C4             40.8512282081       44.5553989764      -16.4917900000  MEMB      177             0.0000000000
     20410       177  CHL1      H4A            40.4207095606       43.5357313525      -16.5878800000  MEMB      177             0.0000000000
     20411       177  CHL1      H4B            41.8694411571       44.5734165278      -16.9359200000  MEMB      177             0.0000000000
     20412       177  CHL1      C5             40.7323466374       45.0904485625      -15.0758700000  MEMB      177             0.0000000000
     20413       177  CHL1      C6             41.7984581144       45.6386014761      -14.4449900000  MEMB      177             0.0000000000
     20414       177  CHL1      H6             42.7123782028       45.8634938790      -15.0143600000  MEMB      177             0.0000000000
     20415       177  CHL1      C7             41.7398425319       46.1764787229      -13.0471600000  MEMB      177             0.0000000000
     20416       177  CHL1      H7A            42.7323839599       46.0335112951      -12.5688700000  MEMB      177             0.0000000000
     20417       177  CHL1      H7B            41.5469221927       47.2705363611      -13.0589400000  MEMB      177             0.0000000000
     20418       177  CHL1      C8             40.5495853487       45.5221563805      -12.2605800000  MEMB      177             0.0000000000
     20419       177  CHL1      H8             40.7700716662       44.4452195291      -12.0996300000  MEMB      177             0.0000000000
     20420       177  CHL1      C14            40.3744776290       46.1900566368      -10.8273800000  MEMB      177             0.0000000000
     20421       177  CHL1      H14            40.0843808221       47.2498896095      -10.9914700000  MEMB      177             0.0000000000
     20422       177  CHL1      C15            41.7394894468       46.3770514814      -10.0917300000  MEMB      177             0.0000000000
     20423       177  CHL1      H15A           42.3802409354       45.4902632344      -10.2850400000  MEMB      177             0.0000000000
     20424       177  CHL1      H15B           42.2411438149       47.3359077104      -10.3432400000  MEMB      177             0.0000000000
     20425       177  CHL1      C16            41.2491979053       46.4098546576       -8.7018800000  MEMB      177             0.0000000000
     20426       177  CHL1      H16A           41.5813922845       45.5640635556       -8.0626500000  MEMB      177             0.0000000000
     20427       177  CHL1      H16B           41.6595628446       47.4012156844       -8.4135700000  MEMB      177             0.0000000000
     20428       177  CHL1      C17            39.7450894945       46.4448330555       -8.6928200000  MEMB      177             0.0000000000
     20429       177  CHL1      H17            39.3168356005       47.4236999108       -8.9973400000  MEMB      177             0.0000000000
     20430       177  CHL1      C13            39.3994075938       45.5843518936       -9.9068200000  MEMB      177             0.0000000000
     20431       177  CHL1      C18            39.7228297595       44.1399591521       -9.5884900000  MEMB      177             0.0000000000
     20432       177  CHL1      H18A           39.0916444995       43.7054653225       -8.7840400000  MEMB      177             0.0000000000
     20433       177  CHL1      H18B           39.6626860724       43.5142999259      -10.5046000000  MEMB      177             0.0000000000
     20434       177  CHL1      H18C           40.7910029075       44.0330036643       -9.3023200000  MEMB      177             0.0000000000
     20435       177  CHL1      C12            38.0358285192       45.7758608003      -10.6345100000  MEMB      177             0.0000000000
     20436       177  CHL1      H12A           37.1619158337       45.2759464516      -10.1647500000  MEMB      177             0.0000000000
     20437       177  CHL1      H12B           37.7971202871       46.8566011802      -10.7311700000  MEMB      177             0.0000000000
     20438       177  CHL1      C11            38.1506552243       45.1112970518      -12.1009500000  MEMB      177             0.0000000000
     20439       177  CHL1      H11A           38.3072736189       44.0151035723      -12.0106100000  MEMB      177             0.0000000000
     20440       177  CHL1      H11B           37.3090853801       45.3932408787      -12.7692200000  MEMB      177             0.0000000000
     20441       177  CHL1      C9             39.2887991840       45.6256981605      -13.0333400000  MEMB      177             0.0000000000
     20442       177  CHL1      H9             39.0942583616       46.6994801771      -13.2418100000  MEMB      177             0.0000000000
     20443       177  CHL1      C10            39.3391869001       44.9027962796      -14.4729500000  MEMB      177             0.0000000000
     20444       177  CHL1      C19            38.8906900722       43.4348584123      -14.3323700000  MEMB      177             0.0000000000
     20445       177  CHL1      H19A           38.9117221166       42.8238871645      -15.2600500000  MEMB      177             0.0000000000
     20446       177  CHL1      H19B           39.4954040652       42.8694255377      -13.5914700000  MEMB      177             0.0000000000
     20447       177  CHL1      H19C           37.8511456880       43.3822324736      -13.9439100000  MEMB      177             0.0000000000
     20448       177  CHL1      C1             38.2696444520       45.6503462575      -15.3226600000  MEMB      177             0.0000000000
     20449       177  CHL1      H1A            37.2504217014       45.3302717862      -15.0176100000  MEMB      177             0.0000000000
     20450       177  CHL1      H1B            38.2770457320       46.7456663373      -15.1367900000  MEMB      177             0.0000000000
     20451       177  CHL1      C2             38.4911375560       45.4218921602      -16.8345500000  MEMB      177             0.0000000000
     20452       177  CHL1      H2A            37.8874203846       46.1519840584      -17.4149100000  MEMB      177             0.0000000000
     20453       177  CHL1      H2B            38.0391858886       44.4506958810      -17.1292200000  MEMB      177             0.0000000000
     20454       177  CHL1      C20            39.0778445574       46.1133135925       -7.2932500000  MEMB      177             0.0000000000
     20455       177  CHL1      H20            39.6172650194       45.2419336140       -6.8642500000  MEMB      177             0.0000000000
     20456       177  CHL1      C21            37.5410521941       45.9405098532       -7.2971600000  MEMB      177             0.0000000000
     20457       177  CHL1      H21A           37.0803870410       46.8220186924       -7.7921800000  MEMB      177             0.0000000000
     20458       177  CHL1      H21B           37.1617151491       45.8747780929       -6.2550000000  MEMB      177             0.0000000000
     20459       177  CHL1      H21C           37.1582976277       45.0994452811       -7.9139500000  MEMB      177             0.0000000000
     20460       177  CHL1      C22            39.4482310462       47.1619012940       -6.2436600000  MEMB      177             0.0000000000
     20461       177  CHL1      H22A           40.5575560482       47.1602431799       -6.1827700000  MEMB      177             0.0000000000
     20462       177  CHL1      H22B           39.0497812397       48.1227584612       -6.6339200000  MEMB      177             0.0000000000
     20463       177  CHL1      C23            39.0140000254       46.9194746490       -4.7959400000  MEMB      177             0.0000000000
     20464       177  CHL1      H23A           37.9606099110       47.2411921309       -4.6502900000  MEMB      177             0.0000000000
     20465       177  CHL1      H23B           39.0125170834       45.8212108682       -4.6282400000  MEMB      177             0.0000000000
     20466       177  CHL1      C24            39.9546348977       47.4719628341       -3.6886100000  MEMB      177             0.0000000000
     20467       177  CHL1      H24A           41.0120263094       47.1845004382       -3.5053100000  MEMB      177             0.0000000000
     20468       177  CHL1      H24B           39.9810387179       48.5546210828       -3.9365700000  MEMB      177             0.0000000000
     20469       177  CHL1      C25            39.2638150749       47.4114053565       -2.3102200000  MEMB      177             0.0000000000
     20470       177  CHL1      H25            38.2400300244       47.7455806509       -2.5831800000  MEMB      177             0.0000000000
     20471       177  CHL1      C26            39.0761014233       46.1232010585       -1.5917800000  MEMB      177             0.0000000000
     20472       177  CHL1      H26A           38.4040476130       46.2704741698       -0.7194400000  MEMB      177             0.0000000000
     20473       177  CHL1      H26B           38.6745419898       45.3657742756       -2.2984400000  MEMB      177             0.0000000000
     20474       177  CHL1      H26C           39.9927772218       45.6298044434       -1.2037100000  MEMB      177             0.0000000000
     20475       177  CHL1      C27            39.9075289442       48.3780137804       -1.2107000000  MEMB      177             0.0000000000
     20476       177  CHL1      H27A           39.7098071965       48.0338705256       -0.1730100000  MEMB      177             0.0000000000
     20477       177  CHL1      H27B           40.9866647862       48.4199637805       -1.4715300000  MEMB      177             0.0000000000
     20478       177  CHL1      H27C           39.4358690339       49.3839132133       -1.2049400000  MEMB      177             0.0000000000
     20479       178  CHL1      C3            -10.5845808305      -39.1236127169      -17.3137550000  MEMB      178             0.0000000000
     20480       178  CHL1      H3             -9.5890285811      -39.4001251492      -16.9054050000  MEMB      178             0.0000000000
     20481       178  CHL1      O3            -10.2707283695      -39.0790002831      -18.6862450000  MEMB      178             0.0000000000
     20482       178  CHL1      H3'           -11.1357100383      -39.3126774664      -19.0309250000  MEMB      178             0.0000000000
     20483       178  CHL1      C4            -11.6087166517      -40.2741405393      -17.1187250000  MEMB      178             0.0000000000
     20484       178  CHL1      H4A           -12.4751806355      -40.0881679926      -17.7887850000  MEMB      178             0.0000000000
     20485       178  CHL1      H4B           -11.1189572638      -41.1997445726      -17.4898150000  MEMB      178             0.0000000000
     20486       178  CHL1      C5            -12.1176756343      -40.3616713053      -15.7085750000  MEMB      178             0.0000000000
     20487       178  CHL1      C6            -12.0493401756      -41.5081939848      -15.1081350000  MEMB      178             0.0000000000
     20488       178  CHL1      H6            -11.8721576012      -42.4181821593      -15.7002050000  MEMB      178             0.0000000000
     20489       178  CHL1      C7            -12.4493326182      -41.7313333467      -13.5818950000  MEMB      178             0.0000000000
     20490       178  CHL1      H7A           -13.2164167185      -42.5349088324      -13.5953550000  MEMB      178             0.0000000000
     20491       178  CHL1      H7B           -11.6174171084      -42.1239306938      -12.9589150000  MEMB      178             0.0000000000
     20492       178  CHL1      C8            -13.0371099902      -40.4111341642      -13.0292250000  MEMB      178             0.0000000000
     20493       178  CHL1      H8            -14.1023784528      -40.3657234318      -13.3414150000  MEMB      178             0.0000000000
     20494       178  CHL1      C14           -12.8839391020      -40.3618625058      -11.5609650000  MEMB      178             0.0000000000
     20495       178  CHL1      H14           -11.7831918518      -40.3815646532      -11.4116650000  MEMB      178             0.0000000000
     20496       178  CHL1      C15           -13.3458673998      -41.5450507657      -10.6969250000  MEMB      178             0.0000000000
     20497       178  CHL1      H15A          -14.4241333839      -41.7255371104      -10.8946150000  MEMB      178             0.0000000000
     20498       178  CHL1      H15B          -12.7324943265      -42.4589717860      -10.8480550000  MEMB      178             0.0000000000
     20499       178  CHL1      C16           -13.3396375615      -40.9554046721       -9.2862750000  MEMB      178             0.0000000000
     20500       178  CHL1      H16A          -14.3177707501      -41.0953895374       -8.7783750000  MEMB      178             0.0000000000
     20501       178  CHL1      H16B          -12.6148299377      -41.5733331639       -8.7143150000  MEMB      178             0.0000000000
     20502       178  CHL1      C17           -13.0951533410      -39.4875832980       -9.2427850000  MEMB      178             0.0000000000
     20503       178  CHL1      H17           -12.0271624876      -39.2155141072       -9.1024450000  MEMB      178             0.0000000000
     20504       178  CHL1      C13           -13.3961435260      -39.1339217172      -10.7581850000  MEMB      178             0.0000000000
     20505       178  CHL1      C18           -14.9553127527      -38.9792166058      -10.8278550000  MEMB      178             0.0000000000
     20506       178  CHL1      H18A          -15.2246522064      -38.1073093201      -10.1941750000  MEMB      178             0.0000000000
     20507       178  CHL1      H18B          -15.3128594296      -38.6308580917      -11.8203950000  MEMB      178             0.0000000000
     20508       178  CHL1      H18C          -15.4191331474      -39.8917482380      -10.3960250000  MEMB      178             0.0000000000
     20509       178  CHL1      C12           -12.6891192357      -37.9006792370      -11.2842050000  MEMB      178             0.0000000000
     20510       178  CHL1      H12A          -13.2773266546      -37.0644180025      -10.8494650000  MEMB      178             0.0000000000
     20511       178  CHL1      H12B          -11.6205571640      -37.8146646710      -10.9924850000  MEMB      178             0.0000000000
     20512       178  CHL1      C11           -12.7792921435      -37.8116928718      -12.8295850000  MEMB      178             0.0000000000
     20513       178  CHL1      H11A          -13.8230073919      -37.5346505074      -13.0907950000  MEMB      178             0.0000000000
     20514       178  CHL1      H11B          -12.1846657131      -36.9417263842      -13.1815950000  MEMB      178             0.0000000000
     20515       178  CHL1      C9            -12.3112423786      -39.1331679113      -13.5010450000  MEMB      178             0.0000000000
     20516       178  CHL1      H9            -11.2646684721      -39.3281079671      -13.1832450000  MEMB      178             0.0000000000
     20517       178  CHL1      C10           -12.4323740379      -39.0085643675      -14.9750550000  MEMB      178             0.0000000000
     20518       178  CHL1      C19           -13.8763003807      -38.5367144724      -15.4200650000  MEMB      178             0.0000000000
     20519       178  CHL1      H19A          -14.6369160216      -39.1294289825      -14.8682650000  MEMB      178             0.0000000000
     20520       178  CHL1      H19B          -14.0665142629      -37.5078208075      -15.0465750000  MEMB      178             0.0000000000
     20521       178  CHL1      H19C          -13.9975532606      -38.6603828325      -16.5174850000  MEMB      178             0.0000000000
     20522       178  CHL1      C1            -11.3786554463      -37.8730651910      -15.3485650000  MEMB      178             0.0000000000
     20523       178  CHL1      H1A           -11.8735075461      -36.9094947451      -15.1016650000  MEMB      178             0.0000000000
     20524       178  CHL1      H1B           -10.4256150777      -37.9316832431      -14.7805650000  MEMB      178             0.0000000000
     20525       178  CHL1      C2            -11.0898749393      -37.8559757062      -16.8143450000  MEMB      178             0.0000000000
     20526       178  CHL1      H2A           -10.4592391281      -36.9846041925      -17.0924250000  MEMB      178             0.0000000000
     20527       178  CHL1      H2B           -12.0731573587      -37.7015798468      -17.3079550000  MEMB      178             0.0000000000
     20528       178  CHL1      C20           -13.8274074413      -38.7475692437       -8.0462650000  MEMB      178             0.0000000000
     20529       178  CHL1      H20           -14.9035840823      -38.9935518444       -8.1713550000  MEMB      178             0.0000000000
     20530       178  CHL1      C21           -13.6128963358      -37.1925229375       -8.1738850000  MEMB      178             0.0000000000
     20531       178  CHL1      H21A          -14.3524639063      -36.7259421334       -8.8592150000  MEMB      178             0.0000000000
     20532       178  CHL1      H21B          -12.5909637310      -36.8295069631       -8.4151150000  MEMB      178             0.0000000000
     20533       178  CHL1      H21C          -13.7355407978      -36.6967616843       -7.1872250000  MEMB      178             0.0000000000
     20534       178  CHL1      C22           -13.3087741341      -39.3597060532       -6.7196550000  MEMB      178             0.0000000000
     20535       178  CHL1      H22A          -13.6127998556      -40.4282120284       -6.7061550000  MEMB      178             0.0000000000
     20536       178  CHL1      H22B          -12.2325933224      -39.2465658074       -6.9713850000  MEMB      178             0.0000000000
     20537       178  CHL1      C23           -13.8420532153      -38.6667653019       -5.3934150000  MEMB      178             0.0000000000
     20538       178  CHL1      H23A          -13.8357425599      -37.5637091033       -5.5258750000  MEMB      178             0.0000000000
     20539       178  CHL1      H23B          -14.8976060894      -39.0050037482       -5.3177950000  MEMB      178             0.0000000000
     20540       178  CHL1      C24           -13.0784548831      -39.1726376495       -4.1380450000  MEMB      178             0.0000000000
     20541       178  CHL1      H24A          -13.3000326672      -40.2590234127       -4.0672950000  MEMB      178             0.0000000000
     20542       178  CHL1      H24B          -11.9757341418      -39.0500405210       -4.1953550000  MEMB      178             0.0000000000
     20543       178  CHL1      C25           -13.4445096015      -38.4775071521       -2.8745950000  MEMB      178             0.0000000000
     20544       178  CHL1      H25           -12.9647081384      -37.4787931931       -2.9562650000  MEMB      178             0.0000000000
     20545       178  CHL1      C26           -14.9471070883      -38.3168460823       -2.5688950000  MEMB      178             0.0000000000
     20546       178  CHL1      H26A          -15.5732255263      -39.2294784714       -2.4719850000  MEMB      178             0.0000000000
     20547       178  CHL1      H26B          -15.1132836772      -37.7754172561       -1.6130950000  MEMB      178             0.0000000000
     20548       178  CHL1      H26C          -15.3541380217      -37.6812269847       -3.3841450000  MEMB      178             0.0000000000
     20549       178  CHL1      C27           -12.8297947383      -39.2364014673       -1.6963850000  MEMB      178             0.0000000000
     20550       178  CHL1      H27A          -13.3742553696      -40.2037362203       -1.7426850000  MEMB      178             0.0000000000
     20551       178  CHL1      H27B          -11.7539854202      -39.2341838167       -1.9737850000  MEMB      178             0.0000000000
     20552       178  CHL1      H27C          -13.0325642156      -38.7166536240       -0.7356150000  MEMB      178             0.0000000000
     20553       179  CHL1      C3             38.8734321133      -23.6011909762      -17.3272800000  MEMB      179             0.0000000000
     20554       179  CHL1      H3             39.0496325185      -24.5382040347      -16.7569400000  MEMB      179             0.0000000000
     20555       179  CHL1      O3             39.0656492867      -23.9127598238      -18.6727200000  MEMB      179             0.0000000000
     20556       179  CHL1      H3'            38.5552631283      -23.2971573092      -19.2038900000  MEMB      179             0.0000000000
     20557       179  CHL1      C4             37.3941844824      -23.0831504906      -17.0856500000  MEMB      179             0.0000000000
     20558       179  CHL1      H4A            37.1861335350      -22.2067278205      -17.7359800000  MEMB      179             0.0000000000
     20559       179  CHL1      H4B            36.8069430930      -23.9659887740      -17.4173800000  MEMB      179             0.0000000000
     20560       179  CHL1      C5             37.2250356028      -22.8590180864      -15.5877500000  MEMB      179             0.0000000000
     20561       179  CHL1      C6             36.3957817447      -23.5629672568      -14.8287500000  MEMB      179             0.0000000000
     20562       179  CHL1      H6             35.7691566572      -24.3260824467      -15.3135100000  MEMB      179             0.0000000000
     20563       179  CHL1      C7             36.0185628637      -23.2347203170      -13.4143700000  MEMB      179             0.0000000000
     20564       179  CHL1      H7A            34.9224696096      -23.3487578663      -13.2733500000  MEMB      179             0.0000000000
     20565       179  CHL1      H7B            36.5530637917      -23.8858081692      -12.6899900000  MEMB      179             0.0000000000
     20566       179  CHL1      C8             36.5723177632      -21.8112916572      -13.0140200000  MEMB      179             0.0000000000
     20567       179  CHL1      H8             35.9016657967      -21.0792310860      -13.5126600000  MEMB      179             0.0000000000
     20568       179  CHL1      C14            36.5891507465      -21.6141709311      -11.4437100000  MEMB      179             0.0000000000
     20569       179  CHL1      H14            37.2602945197      -22.4235644792      -11.0848700000  MEMB      179             0.0000000000
     20570       179  CHL1      C15            35.2747844196      -21.9202544502      -10.7143900000  MEMB      179             0.0000000000
     20571       179  CHL1      H15A           34.5458831375      -21.4151497507      -11.3836300000  MEMB      179             0.0000000000
     20572       179  CHL1      H15B           35.0864152899      -23.0149533680      -10.7362200000  MEMB      179             0.0000000000
     20573       179  CHL1      C16            35.5301211991      -21.2679666072       -9.3460600000  MEMB      179             0.0000000000
     20574       179  CHL1      H16A           34.7099974052      -20.5308679013       -9.2104100000  MEMB      179             0.0000000000
     20575       179  CHL1      H16B           35.5368550576      -22.1140635611       -8.6260600000  MEMB      179             0.0000000000
     20576       179  CHL1      C17            36.8482093196      -20.4589089867       -9.3844600000  MEMB      179             0.0000000000
     20577       179  CHL1      H17            37.6627599921      -21.0946478069       -8.9762100000  MEMB      179             0.0000000000
     20578       179  CHL1      C13            37.1737303355      -20.3325943588      -10.8261500000  MEMB      179             0.0000000000
     20579       179  CHL1      C18            36.3341317883      -19.1808525466      -11.3434800000  MEMB      179             0.0000000000
     20580       179  CHL1      H18A           36.2541069693      -19.2452724065      -12.4497200000  MEMB      179             0.0000000000
     20581       179  CHL1      H18B           35.3073257609      -19.1459358442      -10.9206700000  MEMB      179             0.0000000000
     20582       179  CHL1      H18C           36.8957454680      -18.2569711371      -11.0878300000  MEMB      179             0.0000000000
     20583       179  CHL1      C12            38.6076529393      -20.2796473048      -11.3473900000  MEMB      179             0.0000000000
     20584       179  CHL1      H12A           39.2866860729      -19.4885138424      -10.9635400000  MEMB      179             0.0000000000
     20585       179  CHL1      H12B           39.1527258252      -21.1932606337      -11.0271700000  MEMB      179             0.0000000000
     20586       179  CHL1      C11            38.7361130017      -20.3044636556      -12.8758900000  MEMB      179             0.0000000000
     20587       179  CHL1      H11A           38.4146999964      -19.3387477337      -13.3213200000  MEMB      179             0.0000000000
     20588       179  CHL1      H11B           39.8076916868      -20.4229264047      -13.1442200000  MEMB      179             0.0000000000
     20589       179  CHL1      C9             38.0270894525      -21.5455049769      -13.4897400000  MEMB      179             0.0000000000
     20590       179  CHL1      H9             38.5476711231      -22.4028974434      -13.0120400000  MEMB      179             0.0000000000
     20591       179  CHL1      C10            38.0938820770      -21.7383195423      -15.0453900000  MEMB      179             0.0000000000
     20592       179  CHL1      C19            37.5979272077      -20.3773927473      -15.5938200000  MEMB      179             0.0000000000
     20593       179  CHL1      H19A           36.7213744780      -19.9837717060      -15.0361100000  MEMB      179             0.0000000000
     20594       179  CHL1      H19B           38.3056190177      -19.5225866096      -15.5408400000  MEMB      179             0.0000000000
     20595       179  CHL1      H19C           37.3453104201      -20.6080162526      -16.6508500000  MEMB      179             0.0000000000
     20596       179  CHL1      C1             39.5450059042      -22.0319900320      -15.4239500000  MEMB      179             0.0000000000
     20597       179  CHL1      H1A            40.1903314715      -21.1627237156      -15.1744600000  MEMB      179             0.0000000000
     20598       179  CHL1      H1B            39.8641358252      -22.8742633225      -14.7735200000  MEMB      179             0.0000000000
     20599       179  CHL1      C2             39.8102362796      -22.4721709363      -16.8564800000  MEMB      179             0.0000000000
     20600       179  CHL1      H2A            40.8946040351      -22.7033330278      -16.9274200000  MEMB      179             0.0000000000
     20601       179  CHL1      H2B            39.6592835468      -21.6396519209      -17.5765100000  MEMB      179             0.0000000000
     20602       179  CHL1      C20            36.7041912486      -19.1893666930       -8.4160300000  MEMB      179             0.0000000000
     20603       179  CHL1      H20            35.8980604476      -18.4807832575       -8.7030200000  MEMB      179             0.0000000000
     20604       179  CHL1      C21            37.9845034169      -18.3947589838       -8.3316100000  MEMB      179             0.0000000000
     20605       179  CHL1      H21A           37.8868396853      -17.4715020664       -7.7213700000  MEMB      179             0.0000000000
     20606       179  CHL1      H21B           38.2913896738      -17.9430587923       -9.2991400000  MEMB      179             0.0000000000
     20607       179  CHL1      H21C           38.7612013795      -19.0711663331       -7.9150500000  MEMB      179             0.0000000000
     20608       179  CHL1      C22            36.2339988215      -19.7015132019       -7.0306600000  MEMB      179             0.0000000000
     20609       179  CHL1      H22A           35.2355218042      -20.1813131594       -7.1151600000  MEMB      179             0.0000000000
     20610       179  CHL1      H22B           37.0443332768      -20.3982072181       -6.7268700000  MEMB      179             0.0000000000
     20611       179  CHL1      C23            35.9491780566      -18.5692909665       -5.9993400000  MEMB      179             0.0000000000
     20612       179  CHL1      H23A           36.6135554057      -17.6984028893       -6.1850600000  MEMB      179             0.0000000000
     20613       179  CHL1      H23B           34.9155862146      -18.1955471412       -6.1615800000  MEMB      179             0.0000000000
     20614       179  CHL1      C24            36.1155901847      -18.9747866145       -4.5174100000  MEMB      179             0.0000000000
     20615       179  CHL1      H24A           35.4310382947      -19.8027718480       -4.2343100000  MEMB      179             0.0000000000
     20616       179  CHL1      H24B           37.1642419311      -19.3250399933       -4.4079600000  MEMB      179             0.0000000000
     20617       179  CHL1      C25            35.8533478939      -17.7681969789       -3.5698000000  MEMB      179             0.0000000000
     20618       179  CHL1      H25            36.5166055752      -16.9267500709       -3.8637100000  MEMB      179             0.0000000000
     20619       179  CHL1      C26            34.3866924051      -17.2789605842       -3.5286600000  MEMB      179             0.0000000000
     20620       179  CHL1      H26A           34.1926143980      -16.5143783315       -2.7463100000  MEMB      179             0.0000000000
     20621       179  CHL1      H26B           33.9883365461      -16.8995585092       -4.4939000000  MEMB      179             0.0000000000
     20622       179  CHL1      H26C           33.7137195959      -18.1365976742       -3.3144700000  MEMB      179             0.0000000000
     20623       179  CHL1      C27            36.0700187980      -18.2230774295       -2.1196600000  MEMB      179             0.0000000000
     20624       179  CHL1      H27A           36.9209687832      -18.9080925446       -1.9172700000  MEMB      179             0.0000000000
     20625       179  CHL1      H27B           36.0749429126      -17.3024507201       -1.4977800000  MEMB      179             0.0000000000
     20626       179  CHL1      H27C           35.1510629179      -18.8261406047       -1.9579600000  MEMB      179             0.0000000000
     20627       180  CHL1      C3            -24.8803589299      -48.6360220648      -17.2943250000  MEMB      180             0.0000000000
     20628       180  CHL1      H3            -25.8233294118      -48.1497573583      -16.9646850000  MEMB      180             0.0000000000
     20629       180  CHL1      O3            -24.6254806701      -48.6314029352      -18.7056750000  MEMB      180             0.0000000000
     20630       180  CHL1      H3'           -24.6001570855      -47.6789460914      -18.8230650000  MEMB      180             0.0000000000
     20631       180  CHL1      C4            -23.6955493266      -47.8727938273      -16.7760650000  MEMB      180             0.0000000000
     20632       180  CHL1      H4A           -22.7026032060      -48.2044062450      -17.1480950000  MEMB      180             0.0000000000
     20633       180  CHL1      H4B           -23.6176574873      -46.8324831988      -17.1581750000  MEMB      180             0.0000000000
     20634       180  CHL1      C5            -23.7733306448      -47.9217949155      -15.2628750000  MEMB      180             0.0000000000
     20635       180  CHL1      C6            -23.9996515806      -46.8041081186      -14.6234650000  MEMB      180             0.0000000000
     20636       180  CHL1      H6            -24.0121014886      -45.8403626367      -15.1536150000  MEMB      180             0.0000000000
     20637       180  CHL1      C7            -23.8843550820      -46.7511871783      -13.0574550000  MEMB      180             0.0000000000
     20638       180  CHL1      H7A           -23.1199985773      -45.9984581029      -12.7685350000  MEMB      180             0.0000000000
     20639       180  CHL1      H7B           -24.8705605855      -46.5178511900      -12.6021950000  MEMB      180             0.0000000000
     20640       180  CHL1      C8            -23.3323720156      -48.0579769715      -12.4418950000  MEMB      180             0.0000000000
     20641       180  CHL1      H8            -22.2390972401      -48.1279973726      -12.6267250000  MEMB      180             0.0000000000
     20642       180  CHL1      C14           -23.5881394811      -48.1690688653      -10.9116150000  MEMB      180             0.0000000000
     20643       180  CHL1      H14           -24.6585528159      -48.4381980137      -10.7846750000  MEMB      180             0.0000000000
     20644       180  CHL1      C15           -23.4049811713      -46.8642578054      -10.0381750000  MEMB      180             0.0000000000
     20645       180  CHL1      H15A          -22.5608088995      -46.2283315803      -10.3806550000  MEMB      180             0.0000000000
     20646       180  CHL1      H15B          -24.3237163578      -46.2553607371      -10.1777950000  MEMB      180             0.0000000000
     20647       180  CHL1      C16           -23.1894710305      -47.3801324759       -8.6644350000  MEMB      180             0.0000000000
     20648       180  CHL1      H16A          -22.2016911472      -47.0329925685       -8.2927950000  MEMB      180             0.0000000000
     20649       180  CHL1      H16B          -24.0007429479      -47.0730610623       -7.9702650000  MEMB      180             0.0000000000
     20650       180  CHL1      C17           -23.1956142851      -48.9658141662       -8.6966950000  MEMB      180             0.0000000000
     20651       180  CHL1      H17           -24.2641036099      -49.2694232333       -8.7184850000  MEMB      180             0.0000000000
     20652       180  CHL1      C13           -22.8078138136      -49.3002782253      -10.1696650000  MEMB      180             0.0000000000
     20653       180  CHL1      C18           -21.2861980891      -49.3505981809      -10.4134450000  MEMB      180             0.0000000000
     20654       180  CHL1      H18A          -20.8154878900      -48.4032249951      -10.0739850000  MEMB      180             0.0000000000
     20655       180  CHL1      H18B          -20.7750319820      -50.1577325930       -9.8463850000  MEMB      180             0.0000000000
     20656       180  CHL1      H18C          -21.0138705512      -49.4878742563      -11.4817650000  MEMB      180             0.0000000000
     20657       180  CHL1      C12           -23.4387771153      -50.5845090066      -10.7400650000  MEMB      180             0.0000000000
     20658       180  CHL1      H12A          -22.9607353294      -51.5020662873      -10.3352250000  MEMB      180             0.0000000000
     20659       180  CHL1      H12B          -24.5144829017      -50.6750903271      -10.4774250000  MEMB      180             0.0000000000
     20660       180  CHL1      C11           -23.2667436960      -50.6046194481      -12.2722650000  MEMB      180             0.0000000000
     20661       180  CHL1      H11A          -22.1834422720      -50.6917605256      -12.5028650000  MEMB      180             0.0000000000
     20662       180  CHL1      H11B          -23.8606569730      -51.4874769116      -12.5918750000  MEMB      180             0.0000000000
     20663       180  CHL1      C9            -23.8085329909      -49.2939365941      -13.0584250000  MEMB      180             0.0000000000
     20664       180  CHL1      H9            -24.9101222517      -49.2548234774      -12.9195150000  MEMB      180             0.0000000000
     20665       180  CHL1      C10           -23.6562965523      -49.3269167815      -14.6262550000  MEMB      180             0.0000000000
     20666       180  CHL1      C19           -22.2540268540      -49.9254484679      -15.0128250000  MEMB      180             0.0000000000
     20667       180  CHL1      H19A          -21.9921810254      -49.9364573255      -16.0924750000  MEMB      180             0.0000000000
     20668       180  CHL1      H19B          -21.4514008860      -49.3574564694      -14.4956050000  MEMB      180             0.0000000000
     20669       180  CHL1      H19C          -22.1456081212      -50.9730344530      -14.6590950000  MEMB      180             0.0000000000
     20670       180  CHL1      C1            -24.7342977429      -50.2238417137      -15.3180250000  MEMB      180             0.0000000000
     20671       180  CHL1      H1A           -24.4021958789      -51.2327056301      -14.9920850000  MEMB      180             0.0000000000
     20672       180  CHL1      H1B           -25.7445613625      -50.0579519013      -14.8865650000  MEMB      180             0.0000000000
     20673       180  CHL1      C2            -24.7652185141      -50.0860571503      -16.8057250000  MEMB      180             0.0000000000
     20674       180  CHL1      H2A           -25.6519698012      -50.6353775981      -17.1881450000  MEMB      180             0.0000000000
     20675       180  CHL1      H2B           -23.8903516256      -50.5082407685      -17.3448850000  MEMB      180             0.0000000000
     20676       180  CHL1      C20           -22.3344626396      -49.6371468229       -7.5717150000  MEMB      180             0.0000000000
     20677       180  CHL1      H20           -21.3193545398      -49.2667111308       -7.8298750000  MEMB      180             0.0000000000
     20678       180  CHL1      C21           -22.3976994131      -51.1347524700       -7.6151250000  MEMB      180             0.0000000000
     20679       180  CHL1      H21A          -21.8923659345      -51.4812519235       -8.5418950000  MEMB      180             0.0000000000
     20680       180  CHL1      H21B          -23.4759909606      -51.4013520406       -7.6377750000  MEMB      180             0.0000000000
     20681       180  CHL1      H21C          -21.8721453931      -51.4886639009       -6.7025050000  MEMB      180             0.0000000000
     20682       180  CHL1      C22           -22.7034883777      -49.1221417960       -6.2033550000  MEMB      180             0.0000000000
     20683       180  CHL1      H22A          -23.2648513191      -48.1636326185       -6.2245250000  MEMB      180             0.0000000000
     20684       180  CHL1      H22B          -23.4763258938      -49.8490313078       -5.8736850000  MEMB      180             0.0000000000
     20685       180  CHL1      C23           -21.4193835439      -48.9009765840       -5.4209750000  MEMB      180             0.0000000000
     20686       180  CHL1      H23A          -20.6937724060      -49.7354916240       -5.3142250000  MEMB      180             0.0000000000
     20687       180  CHL1      H23B          -20.8976386015      -48.1709491998       -6.0760750000  MEMB      180             0.0000000000
     20688       180  CHL1      C24           -21.6165230317      -48.2567738981       -4.0271550000  MEMB      180             0.0000000000
     20689       180  CHL1      H24A          -22.1071786381      -47.2787848597       -4.2197850000  MEMB      180             0.0000000000
     20690       180  CHL1      H24B          -22.2498138720      -48.8041905443       -3.2966650000  MEMB      180             0.0000000000
     20691       180  CHL1      C25           -20.2593761755      -47.8472401097       -3.3335850000  MEMB      180             0.0000000000
     20692       180  CHL1      H25           -19.5982458758      -47.4767296644       -4.1459650000  MEMB      180             0.0000000000
     20693       180  CHL1      C26           -20.5763494617      -46.7634774307       -2.3193350000  MEMB      180             0.0000000000
     20694       180  CHL1      H26A          -19.6715316678      -46.5309467582       -1.7180550000  MEMB      180             0.0000000000
     20695       180  CHL1      H26B          -20.9210449230      -45.8237321754       -2.8014050000  MEMB      180             0.0000000000
     20696       180  CHL1      H26C          -21.4005539636      -47.0075308312       -1.6154550000  MEMB      180             0.0000000000
     20697       180  CHL1      C27           -19.4838582973      -49.1006689067       -2.7016050000  MEMB      180             0.0000000000
     20698       180  CHL1      H27A          -18.4387225267      -48.8412307928       -2.4282750000  MEMB      180             0.0000000000
     20699       180  CHL1      H27B          -20.0457348670      -49.5866697271       -1.8755150000  MEMB      180             0.0000000000
     20700       180  CHL1      H27C          -19.4138960398      -49.7791174929       -3.5786050000  MEMB      180             0.0000000000
     20701       181  CHL1      C3            -54.0546725609      -50.1619524269      -17.3428300000  MEMB      181             0.0000000000
     20702       181  CHL1      H3            -54.0022106014      -51.0718063418      -16.7074400000  MEMB      181             0.0000000000
     20703       181  CHL1      O3            -53.9846146391      -50.5738465731      -18.6571700000  MEMB      181             0.0000000000
     20704       181  CHL1      H3'           -54.2903056472      -49.8057138024      -19.1451500000  MEMB      181             0.0000000000
     20705       181  CHL1      C4            -55.3832447456      -49.4179638296      -17.0074700000  MEMB      181             0.0000000000
     20706       181  CHL1      H4A           -55.3951728760      -48.4239909061      -17.5036700000  MEMB      181             0.0000000000
     20707       181  CHL1      H4B           -56.2006327830      -49.8621811760      -17.6148100000  MEMB      181             0.0000000000
     20708       181  CHL1      C5            -55.5535288273      -49.2320798765      -15.4940000000  MEMB      181             0.0000000000
     20709       181  CHL1      C6            -56.5953251052      -49.7743651162      -14.8116100000  MEMB      181             0.0000000000
     20710       181  CHL1      H6            -57.3573050876      -50.3757505491      -15.3290300000  MEMB      181             0.0000000000
     20711       181  CHL1      C7            -56.7898748031      -49.6627230137      -13.3059100000  MEMB      181             0.0000000000
     20712       181  CHL1      H7A           -57.8366844852      -49.3736037559      -13.0715700000  MEMB      181             0.0000000000
     20713       181  CHL1      H7B           -56.5839826871      -50.6456578936      -12.8307600000  MEMB      181             0.0000000000
     20714       181  CHL1      C8            -55.7432821624      -48.7471795928      -12.6711300000  MEMB      181             0.0000000000
     20715       181  CHL1      H8            -56.1097157840      -47.7141249742      -12.8523900000  MEMB      181             0.0000000000
     20716       181  CHL1      C14           -55.6161968034      -48.9099960589      -11.1387400000  MEMB      181             0.0000000000
     20717       181  CHL1      H14           -54.9515959023      -49.7911290085      -11.0112900000  MEMB      181             0.0000000000
     20718       181  CHL1      C15           -56.9628594310      -48.9996310687      -10.4416300000  MEMB      181             0.0000000000
     20719       181  CHL1      H15A          -57.6520423668      -48.2769390105      -10.9285300000  MEMB      181             0.0000000000
     20720       181  CHL1      H15B          -57.4766936724      -49.9836011690      -10.4874900000  MEMB      181             0.0000000000
     20721       181  CHL1      C16           -56.6935620963      -48.5087400028       -9.0222500000  MEMB      181             0.0000000000
     20722       181  CHL1      H16A          -57.3704842459      -47.7035090489       -8.6648900000  MEMB      181             0.0000000000
     20723       181  CHL1      H16B          -56.7954488663      -49.3779451623       -8.3378400000  MEMB      181             0.0000000000
     20724       181  CHL1      C17           -55.1888415153      -48.0460631875       -8.9516800000  MEMB      181             0.0000000000
     20725       181  CHL1      H17           -54.5600408873      -48.9504926700       -8.8069700000  MEMB      181             0.0000000000
     20726       181  CHL1      C13           -54.8712074468      -47.7008164321      -10.4597500000  MEMB      181             0.0000000000
     20727       181  CHL1      C18           -55.4185178078      -46.2708549731      -10.7576600000  MEMB      181             0.0000000000
     20728       181  CHL1      H18A          -55.3664401625      -46.0071470859      -11.8356600000  MEMB      181             0.0000000000
     20729       181  CHL1      H18B          -56.4648867811      -46.1529308846      -10.4033800000  MEMB      181             0.0000000000
     20730       181  CHL1      H18C          -54.8286684427      -45.5045230942      -10.2107300000  MEMB      181             0.0000000000
     20731       181  CHL1      C12           -53.4548540849      -47.8550286995      -11.0001500000  MEMB      181             0.0000000000
     20732       181  CHL1      H12A          -52.8968940143      -46.9578900922      -10.6564400000  MEMB      181             0.0000000000
     20733       181  CHL1      H12B          -53.0338193010      -48.6776687172      -10.3834600000  MEMB      181             0.0000000000
     20734       181  CHL1      C11           -53.3429001773      -47.9313211707      -12.5517900000  MEMB      181             0.0000000000
     20735       181  CHL1      H11A          -53.2508698206      -46.9096301928      -12.9784100000  MEMB      181             0.0000000000
     20736       181  CHL1      H11B          -52.3971876220      -48.4832799022      -12.7396100000  MEMB      181             0.0000000000
     20737       181  CHL1      C9            -54.3461007240      -48.8043073926      -13.3300200000  MEMB      181             0.0000000000
     20738       181  CHL1      H9            -54.0853001887      -49.8637098401      -13.1203200000  MEMB      181             0.0000000000
     20739       181  CHL1      C10           -54.3875881394      -48.5046982351      -14.8484800000  MEMB      181             0.0000000000
     20740       181  CHL1      C19           -54.6270227540      -47.0383323034      -15.1563900000  MEMB      181             0.0000000000
     20741       181  CHL1      H19A          -54.7800219869      -46.7384336210      -16.2151500000  MEMB      181             0.0000000000
     20742       181  CHL1      H19B          -55.4156711294      -46.5552924251      -14.5407400000  MEMB      181             0.0000000000
     20743       181  CHL1      H19C          -53.6235499837      -46.5985574230      -14.9721500000  MEMB      181             0.0000000000
     20744       181  CHL1      C1            -52.9436318459      -49.0072222586      -15.4179100000  MEMB      181             0.0000000000
     20745       181  CHL1      H1A           -52.1692202314      -48.2474950076      -15.1782700000  MEMB      181             0.0000000000
     20746       181  CHL1      H1B           -52.6699618873      -49.9370922154      -14.8749900000  MEMB      181             0.0000000000
     20747       181  CHL1      C2            -52.9084710171      -49.1984029844      -16.9554000000  MEMB      181             0.0000000000
     20748       181  CHL1      H2A           -51.8794093472      -49.5305510018      -17.2104200000  MEMB      181             0.0000000000
     20749       181  CHL1      H2B           -53.1262432916      -48.3394144914      -17.6255000000  MEMB      181             0.0000000000
     20750       181  CHL1      C20           -54.7776493874      -47.0915186721       -7.8073500000  MEMB      181             0.0000000000
     20751       181  CHL1      H20           -55.3736636284      -46.1614910289       -7.9262600000  MEMB      181             0.0000000000
     20752       181  CHL1      C21           -53.2865627328      -46.7391651274       -7.8650000000  MEMB      181             0.0000000000
     20753       181  CHL1      H21A          -52.6969270908      -47.6807847280       -7.8677000000  MEMB      181             0.0000000000
     20754       181  CHL1      H21B          -52.9654776640      -46.1350814598       -6.9896100000  MEMB      181             0.0000000000
     20755       181  CHL1      H21C          -53.0853243946      -46.2326764334       -8.8331400000  MEMB      181             0.0000000000
     20756       181  CHL1      C22           -55.3348496812      -47.6636901001       -6.5471800000  MEMB      181             0.0000000000
     20757       181  CHL1      H22A          -56.4279839639      -47.7861096187       -6.7033600000  MEMB      181             0.0000000000
     20758       181  CHL1      H22B          -55.0372027314      -48.7178012497       -6.3612800000  MEMB      181             0.0000000000
     20759       181  CHL1      C23           -54.8008407410      -46.8673638327       -5.3803300000  MEMB      181             0.0000000000
     20760       181  CHL1      H23A          -53.7284267643      -47.1003579294       -5.2072500000  MEMB      181             0.0000000000
     20761       181  CHL1      H23B          -54.8510920724      -45.7986622589       -5.6798000000  MEMB      181             0.0000000000
     20762       181  CHL1      C24           -55.7416291146      -47.0812734609       -4.1859300000  MEMB      181             0.0000000000
     20763       181  CHL1      H24A          -56.7703131461      -46.8187531843       -4.5133600000  MEMB      181             0.0000000000
     20764       181  CHL1      H24B          -55.7778498942      -48.1611014632       -3.9271300000  MEMB      181             0.0000000000
     20765       181  CHL1      C25           -55.3212884382      -46.2341315937       -2.9701100000  MEMB      181             0.0000000000
     20766       181  CHL1      H25           -54.6629631254      -45.3701442149       -3.2034900000  MEMB      181             0.0000000000
     20767       181  CHL1      C26           -56.5790197299      -45.5683544334       -2.2822400000  MEMB      181             0.0000000000
     20768       181  CHL1      H26A          -56.3804397713      -45.0236104453       -1.3345300000  MEMB      181             0.0000000000
     20769       181  CHL1      H26B          -57.0611274177      -44.9285861579       -3.0520400000  MEMB      181             0.0000000000
     20770       181  CHL1      H26C          -57.2525869277      -46.4296646224       -2.0853300000  MEMB      181             0.0000000000
     20771       181  CHL1      C27           -54.3907804938      -47.0233593900       -2.0489800000  MEMB      181             0.0000000000
     20772       181  CHL1      H27A          -54.9602580712      -47.7786401123       -1.4662500000  MEMB      181             0.0000000000
     20773       181  CHL1      H27B          -53.4980094154      -47.4215113579       -2.5769500000  MEMB      181             0.0000000000
     20774       181  CHL1      H27C          -53.9035767783      -46.4143979630       -1.2577100000  MEMB      181             0.0000000000
     20775       182  CHL1      C3            -32.4828958658       47.3932784112      -17.3009350000  MEMB      182             0.0000000000
     20776       182  CHL1      H3            -33.5839386264       47.2511327348      -17.2582950000  MEMB      182             0.0000000000
     20777       182  CHL1      O3            -32.2809685342       47.6478429888      -18.6990650000  MEMB      182             0.0000000000
     20778       182  CHL1      H3'           -31.3527805568       47.8653857470      -18.8119350000  MEMB      182             0.0000000000
     20779       182  CHL1      C4            -31.9989126690       48.6498788603      -16.5266550000  MEMB      182             0.0000000000
     20780       182  CHL1      H4A           -30.9658153310       48.8270547029      -16.8949450000  MEMB      182             0.0000000000
     20781       182  CHL1      H4B           -32.6438603196       49.5125879696      -16.7988450000  MEMB      182             0.0000000000
     20782       182  CHL1      C5            -32.0473889113       48.4248325012      -14.9895650000  MEMB      182             0.0000000000
     20783       182  CHL1      C6            -32.6655242390       49.3549807227      -14.1478550000  MEMB      182             0.0000000000
     20784       182  CHL1      H6            -33.0817697897       50.3150511636      -14.4870050000  MEMB      182             0.0000000000
     20785       182  CHL1      C7            -32.6931687982       49.0888559949      -12.6917450000  MEMB      182             0.0000000000
     20786       182  CHL1      H7A           -32.8491725458       49.9540252301      -12.0124350000  MEMB      182             0.0000000000
     20787       182  CHL1      H7B           -33.6442951914       48.5268485356      -12.5741350000  MEMB      182             0.0000000000
     20788       182  CHL1      C8            -31.5398529964       48.1982625295      -12.1462450000  MEMB      182             0.0000000000
     20789       182  CHL1      H8            -30.6258641268       48.8297965977      -12.1567750000  MEMB      182             0.0000000000
     20790       182  CHL1      C14           -31.8056795763       47.7939941909      -10.6532950000  MEMB      182             0.0000000000
     20791       182  CHL1      H14           -32.8225248928       47.3470375152      -10.6775550000  MEMB      182             0.0000000000
     20792       182  CHL1      C15           -31.9789582092       48.9680701221       -9.6850350000  MEMB      182             0.0000000000
     20793       182  CHL1      H15A          -31.1749512307       49.7220194967       -9.8244850000  MEMB      182             0.0000000000
     20794       182  CHL1      H15B          -32.9730191175       49.4436831088       -9.8263050000  MEMB      182             0.0000000000
     20795       182  CHL1      C16           -31.8251188429       48.2419626820       -8.2794850000  MEMB      182             0.0000000000
     20796       182  CHL1      H16A          -31.0574775401       48.7933994206       -7.6955650000  MEMB      182             0.0000000000
     20797       182  CHL1      H16B          -32.8421574508       48.3095701740       -7.8374550000  MEMB      182             0.0000000000
     20798       182  CHL1      C17           -31.1949655502       46.8505430531       -8.6492050000  MEMB      182             0.0000000000
     20799       182  CHL1      H17           -32.0581173237       46.1518729226       -8.6153050000  MEMB      182             0.0000000000
     20800       182  CHL1      C13           -30.7568481977       46.8770088670      -10.1153050000  MEMB      182             0.0000000000
     20801       182  CHL1      C18           -29.3821940844       47.6600295833      -10.1573550000  MEMB      182             0.0000000000
     20802       182  CHL1      H18A          -29.3217517467       48.5989957744       -9.5665750000  MEMB      182             0.0000000000
     20803       182  CHL1      H18B          -28.6353869042       46.9583620500       -9.7280950000  MEMB      182             0.0000000000
     20804       182  CHL1      H18C          -29.0313546784       47.8488113966      -11.1944650000  MEMB      182             0.0000000000
     20805       182  CHL1      C12           -30.6668823039       45.5585034594      -10.9967450000  MEMB      182             0.0000000000
     20806       182  CHL1      H12A          -29.9142995163       44.7922008114      -10.7126250000  MEMB      182             0.0000000000
     20807       182  CHL1      H12B          -31.6594669648       45.0933437871      -10.8158450000  MEMB      182             0.0000000000
     20808       182  CHL1      C11           -30.4473007510       45.7827257354      -12.4561850000  MEMB      182             0.0000000000
     20809       182  CHL1      H11A          -29.4572534764       46.2835045455      -12.5141350000  MEMB      182             0.0000000000
     20810       182  CHL1      H11B          -30.3982358737       44.8197331010      -13.0080450000  MEMB      182             0.0000000000
     20811       182  CHL1      C9            -31.4496417526       46.8989183929      -12.9991950000  MEMB      182             0.0000000000
     20812       182  CHL1      H9            -32.5164720595       46.5887922242      -13.0029650000  MEMB      182             0.0000000000
     20813       182  CHL1      C10           -31.2837273323       47.1744340738      -14.5303150000  MEMB      182             0.0000000000
     20814       182  CHL1      C19           -29.7361223381       47.3442228842      -14.8278150000  MEMB      182             0.0000000000
     20815       182  CHL1      H19A          -29.4908321118       47.7928909287      -15.8141450000  MEMB      182             0.0000000000
     20816       182  CHL1      H19B          -29.3672263862       47.9140981884      -13.9483450000  MEMB      182             0.0000000000
     20817       182  CHL1      H19C          -29.2433520516       46.3515602032      -14.7496550000  MEMB      182             0.0000000000
     20818       182  CHL1      C1            -31.7487766294       45.9328374191      -15.3276350000  MEMB      182             0.0000000000
     20819       182  CHL1      H1A           -31.0333277296       45.0949000185      -15.1851250000  MEMB      182             0.0000000000
     20820       182  CHL1      H1B           -32.7461441086       45.5792177053      -14.9892250000  MEMB      182             0.0000000000
     20821       182  CHL1      C2            -31.7805957202       46.0977984556      -16.8916250000  MEMB      182             0.0000000000
     20822       182  CHL1      H2A           -32.3023868490       45.2639251005      -17.4080650000  MEMB      182             0.0000000000
     20823       182  CHL1      H2B           -30.7480152139       46.2652019195      -17.2658950000  MEMB      182             0.0000000000
     20824       182  CHL1      C20           -30.2732063861       46.3140500509       -7.5457350000  MEMB      182             0.0000000000
     20825       182  CHL1      H20           -29.3065755695       46.8592458430       -7.4936950000  MEMB      182             0.0000000000
     20826       182  CHL1      C21           -30.0472910835       44.8126334683       -7.7677850000  MEMB      182             0.0000000000
     20827       182  CHL1      H21A          -29.4169052719       44.3781142049       -6.9627250000  MEMB      182             0.0000000000
     20828       182  CHL1      H21B          -29.4543864037       44.5276800769       -8.6630850000  MEMB      182             0.0000000000
     20829       182  CHL1      H21C          -31.0260206399       44.2920244652       -7.8411150000  MEMB      182             0.0000000000
     20830       182  CHL1      C22           -30.9575468202       46.6748002286       -6.1904050000  MEMB      182             0.0000000000
     20831       182  CHL1      H22A          -30.9659863815       47.7679636116       -5.9923250000  MEMB      182             0.0000000000
     20832       182  CHL1      H22B          -31.9718649027       46.2216846578       -6.2034750000  MEMB      182             0.0000000000
     20833       182  CHL1      C23           -30.2058366372       46.1603361831       -4.9584050000  MEMB      182             0.0000000000
     20834       182  CHL1      H23A          -30.0696442603       45.0600271286       -4.8870550000  MEMB      182             0.0000000000
     20835       182  CHL1      H23B          -29.1806775493       46.5883494033       -4.9451150000  MEMB      182             0.0000000000
     20836       182  CHL1      C24           -30.9090465558       46.5888336586       -3.6825350000  MEMB      182             0.0000000000
     20837       182  CHL1      H24A          -31.0720086868       47.6867644240       -3.7305950000  MEMB      182             0.0000000000
     20838       182  CHL1      H24B          -31.9305984908       46.1637364029       -3.5822550000  MEMB      182             0.0000000000
     20839       182  CHL1      C25           -30.2048072502       46.2985520797       -2.3352750000  MEMB      182             0.0000000000
     20840       182  CHL1      H25           -29.2376551619       46.8298800394       -2.4641950000  MEMB      182             0.0000000000
     20841       182  CHL1      C26           -31.0098452361       46.8508808981       -1.1918550000  MEMB      182             0.0000000000
     20842       182  CHL1      H26A          -30.9880943410       47.9440076590       -0.9945750000  MEMB      182             0.0000000000
     20843       182  CHL1      H26B          -32.0799681285       46.5526502992       -1.2061450000  MEMB      182             0.0000000000
     20844       182  CHL1      H26C          -30.6429414789       46.3664471121       -0.2617850000  MEMB      182             0.0000000000
     20845       182  CHL1      C27           -30.0411748476       44.7886002546       -2.1808050000  MEMB      182             0.0000000000
     20846       182  CHL1      H27A          -29.2376095134       44.4156866811       -2.8512850000  MEMB      182             0.0000000000
     20847       182  CHL1      H27B          -29.8026909746       44.5188912188       -1.1297550000  MEMB      182             0.0000000000
     20848       182  CHL1      H27C          -31.0063129175       44.2654212722       -2.3514150000  MEMB      182             0.0000000000
     20849       183  CHL1      C3             30.5691797388       56.5789223473      -17.3331050000  MEMB      183             0.0000000000
     20850       183  CHL1      H3             29.6927307984       57.2603581087      -17.2906350000  MEMB      183             0.0000000000
     20851       183  CHL1      O3             30.6592588612       56.1088068527      -18.6668950000  MEMB      183             0.0000000000
     20852       183  CHL1      H3'            29.8629372318       55.5966498303      -18.8254950000  MEMB      183             0.0000000000
     20853       183  CHL1      C4             31.7821746410       57.4141422712      -16.9761150000  MEMB      183             0.0000000000
     20854       183  CHL1      H4A            32.6910896718       56.7910512129      -17.1173950000  MEMB      183             0.0000000000
     20855       183  CHL1      H4B            31.7851771374       58.1292136385      -17.8263950000  MEMB      183             0.0000000000
     20856       183  CHL1      C5             31.7456829262       58.0687450666      -15.5491250000  MEMB      183             0.0000000000
     20857       183  CHL1      C6             31.7033749194       59.3853482074      -15.4112350000  MEMB      183             0.0000000000
     20858       183  CHL1      H6             31.7746323619       59.9876513574      -16.3289250000  MEMB      183             0.0000000000
     20859       183  CHL1      C7             31.6490913087       60.1248944277      -14.0728750000  MEMB      183             0.0000000000
     20860       183  CHL1      H7A            32.4139636771       60.9262069256      -13.9881450000  MEMB      183             0.0000000000
     20861       183  CHL1      H7B            30.6193732381       60.5303148643      -13.9746550000  MEMB      183             0.0000000000
     20862       183  CHL1      C8             31.9171559356       59.0703247547      -12.8638050000  MEMB      183             0.0000000000
     20863       183  CHL1      H8             33.0116432997       58.9024791045      -12.9547250000  MEMB      183             0.0000000000
     20864       183  CHL1      C14            31.6332552494       59.6639252538      -11.4675650000  MEMB      183             0.0000000000
     20865       183  CHL1      H14            30.5625182683       59.9553054348      -11.5217250000  MEMB      183             0.0000000000
     20866       183  CHL1      C15            32.4161007566       60.9502096544      -11.1202450000  MEMB      183             0.0000000000
     20867       183  CHL1      H15A           33.4560905801       60.7470980295      -11.4541550000  MEMB      183             0.0000000000
     20868       183  CHL1      H15B           32.0344073414       61.8084189641      -11.7136250000  MEMB      183             0.0000000000
     20869       183  CHL1      C16            32.2400799600       61.0814483666       -9.6210150000  MEMB      183             0.0000000000
     20870       183  CHL1      H16A           33.2177552486       61.2030338528       -9.1075050000  MEMB      183             0.0000000000
     20871       183  CHL1      H16B           31.5440264369       61.9051228205       -9.3538050000  MEMB      183             0.0000000000
     20872       183  CHL1      C17            31.5770767971       59.7420821262       -9.2285450000  MEMB      183             0.0000000000
     20873       183  CHL1      H17            30.5279960953       60.1076561800       -9.2186650000  MEMB      183             0.0000000000
     20874       183  CHL1      C13            31.7911239653       58.7282573995      -10.2441750000  MEMB      183             0.0000000000
     20875       183  CHL1      C18            33.2410887521       58.1741710202      -10.1299450000  MEMB      183             0.0000000000
     20876       183  CHL1      H18A           33.3066996804       57.2981575423       -9.4497950000  MEMB      183             0.0000000000
     20877       183  CHL1      H18B           33.5688173583       57.7537492410      -11.1047150000  MEMB      183             0.0000000000
     20878       183  CHL1      H18C           33.8936440678       59.0408350151       -9.8904050000  MEMB      183             0.0000000000
     20879       183  CHL1      C12            30.7573069614       57.6276223079      -10.4785250000  MEMB      183             0.0000000000
     20880       183  CHL1      H12A           30.7834944808       56.9137992494       -9.6275950000  MEMB      183             0.0000000000
     20881       183  CHL1      H12B           29.8170296563       58.2088822754      -10.5895950000  MEMB      183             0.0000000000
     20882       183  CHL1      C11            31.0027284885       56.8489962473      -11.8284550000  MEMB      183             0.0000000000
     20883       183  CHL1      H11A           31.9312112009       56.2615572357      -11.6636750000  MEMB      183             0.0000000000
     20884       183  CHL1      H11B           30.1149148760       56.1942441688      -11.9603750000  MEMB      183             0.0000000000
     20885       183  CHL1      C9             31.0662039344       57.7949050849      -13.0890750000  MEMB      183             0.0000000000
     20886       183  CHL1      H9             30.0618668428       58.2442632228      -13.2430250000  MEMB      183             0.0000000000
     20887       183  CHL1      C10            31.5915502563       57.0770107140      -14.4126050000  MEMB      183             0.0000000000
     20888       183  CHL1      C19            32.9755498147       56.4920111217      -14.1743750000  MEMB      183             0.0000000000
     20889       183  CHL1      H19A           32.9199387168       55.7170713224      -13.3802150000  MEMB      183             0.0000000000
     20890       183  CHL1      H19B           33.3465166092       56.0281332651      -15.1132650000  MEMB      183             0.0000000000
     20891       183  CHL1      H19C           33.6347464446       57.3198519760      -13.8360650000  MEMB      183             0.0000000000
     20892       183  CHL1      C1             30.4367145917       56.0279966817      -14.8105150000  MEMB      183             0.0000000000
     20893       183  CHL1      H1A            30.2835751459       55.2132406315      -14.0708950000  MEMB      183             0.0000000000
     20894       183  CHL1      H1B            29.5101840462       56.6342006166      -14.7190350000  MEMB      183             0.0000000000
     20895       183  CHL1      C2             30.5060289695       55.4394333510      -16.2942850000  MEMB      183             0.0000000000
     20896       183  CHL1      H2A            29.6346855272       54.8251087482      -16.6068450000  MEMB      183             0.0000000000
     20897       183  CHL1      H2B            31.4131868441       54.8083447679      -16.4088150000  MEMB      183             0.0000000000
     20898       183  CHL1      C20            31.7034758956       59.3119432164       -7.6868350000  MEMB      183             0.0000000000
     20899       183  CHL1      H20            32.7109513251       58.9092211893       -7.4478350000  MEMB      183             0.0000000000
     20900       183  CHL1      C21            30.5719871075       58.3402240860       -7.2109850000  MEMB      183             0.0000000000
     20901       183  CHL1      H21A           30.4556793024       58.3519870993       -6.1061450000  MEMB      183             0.0000000000
     20902       183  CHL1      H21B           30.7880235588       57.3204304774       -7.5952750000  MEMB      183             0.0000000000
     20903       183  CHL1      H21C           29.6423863229       58.6542439278       -7.7320950000  MEMB      183             0.0000000000
     20904       183  CHL1      C22            31.7696338583       60.4701345358       -6.7066150000  MEMB      183             0.0000000000
     20905       183  CHL1      H22A           32.4040370975       61.2929883799       -7.1000250000  MEMB      183             0.0000000000
     20906       183  CHL1      H22B           30.7904000769       60.9788496845       -6.5777250000  MEMB      183             0.0000000000
     20907       183  CHL1      C23            32.2737959770       60.2231635671       -5.2878750000  MEMB      183             0.0000000000
     20908       183  CHL1      H23A           31.3400315694       60.1280979514       -4.6934250000  MEMB      183             0.0000000000
     20909       183  CHL1      H23B           32.7654826762       59.2272126153       -5.3130750000  MEMB      183             0.0000000000
     20910       183  CHL1      C24            33.2724562766       61.3213759871       -4.7361750000  MEMB      183             0.0000000000
     20911       183  CHL1      H24A           34.2967802916       61.1800445868       -5.1424950000  MEMB      183             0.0000000000
     20912       183  CHL1      H24B           33.0157023541       62.3664280309       -5.0123650000  MEMB      183             0.0000000000
     20913       183  CHL1      C25            33.3365669095       61.3122853743       -3.1138750000  MEMB      183             0.0000000000
     20914       183  CHL1      H25            32.3385471783       61.5963562473       -2.7169350000  MEMB      183             0.0000000000
     20915       183  CHL1      C26            33.7527720185       59.9327959211       -2.6149450000  MEMB      183             0.0000000000
     20916       183  CHL1      H26A           32.9066181802       59.2155851256       -2.6777550000  MEMB      183             0.0000000000
     20917       183  CHL1      H26B           34.7094799366       59.6540419072       -3.1061850000  MEMB      183             0.0000000000
     20918       183  CHL1      H26C           34.0130067957       59.9935293161       -1.5365550000  MEMB      183             0.0000000000
     20919       183  CHL1      C27            34.3568518337       62.2996907290       -2.5787850000  MEMB      183             0.0000000000
     20920       183  CHL1      H27A           34.2349955093       63.2458127429       -3.1482750000  MEMB      183             0.0000000000
     20921       183  CHL1      H27B           34.0449572398       62.5209582839       -1.5356650000  MEMB      183             0.0000000000
     20922       183  CHL1      H27C           35.4090781504       61.9431551046       -2.5743450000  MEMB      183             0.0000000000
     20923       184  CHL1      C3             48.3272253706       42.2418630699      -17.3132200000  MEMB      184             0.0000000000
     20924       184  CHL1      H3             49.1845517105       41.5828816536      -17.0581300000  MEMB      184             0.0000000000
     20925       184  CHL1      O3             48.1843830294       42.2350919301      -18.6867800000  MEMB      184             0.0000000000
     20926       184  CHL1      H3'            47.3912618981       42.7605624211      -18.8149300000  MEMB      184             0.0000000000
     20927       184  CHL1      C4             46.9850187004       41.7437664925      -16.6741200000  MEMB      184             0.0000000000
     20928       184  CHL1      H4A            46.1343454772       42.3277514706      -17.0859800000  MEMB      184             0.0000000000
     20929       184  CHL1      H4B            46.8216056983       40.7275871695      -17.0924400000  MEMB      184             0.0000000000
     20930       184  CHL1      C5             47.1282405313       41.8199569969      -15.1366800000  MEMB      184             0.0000000000
     20931       184  CHL1      C6             46.9231266800       40.6587846145      -14.4520400000  MEMB      184             0.0000000000
     20932       184  CHL1      H6             46.6754005449       39.6946514645      -14.9201100000  MEMB      184             0.0000000000
     20933       184  CHL1      C7             46.9076562106       40.6892741140      -12.9511700000  MEMB      184             0.0000000000
     20934       184  CHL1      H7A            45.9896237766       40.1743991475      -12.5956100000  MEMB      184             0.0000000000
     20935       184  CHL1      H7B            47.7497257823       40.0806024982      -12.5577700000  MEMB      184             0.0000000000
     20936       184  CHL1      C8             47.0355197843       42.1095590231      -12.2941300000  MEMB      184             0.0000000000
     20937       184  CHL1      H8             46.0723838499       42.6539111424      -12.3960000000  MEMB      184             0.0000000000
     20938       184  CHL1      C14            47.4461585563       42.0121794032      -10.8424500000  MEMB      184             0.0000000000
     20939       184  CHL1      H14            48.5188559387       41.7239544835      -10.8665500000  MEMB      184             0.0000000000
     20940       184  CHL1      C15            46.7301499325       41.0399644943       -9.9094400000  MEMB      184             0.0000000000
     20941       184  CHL1      H15A           45.6232472289       41.1317058548       -9.9353000000  MEMB      184             0.0000000000
     20942       184  CHL1      H15B           46.9257345907       39.9850894818      -10.1980900000  MEMB      184             0.0000000000
     20943       184  CHL1      C16            47.2803653181       41.5134825775       -8.5138200000  MEMB      184             0.0000000000
     20944       184  CHL1      H16A           46.3503859122       41.6384283222       -7.9189800000  MEMB      184             0.0000000000
     20945       184  CHL1      H16B           47.9401712988       40.7066237465       -8.1291600000  MEMB      184             0.0000000000
     20946       184  CHL1      C17            48.0281281338       42.8675243563       -8.7230400000  MEMB      184             0.0000000000
     20947       184  CHL1      H17            49.1144462674       42.6357183594       -8.7453800000  MEMB      184             0.0000000000
     20948       184  CHL1      C13            47.6302059194       43.3244359660      -10.1125600000  MEMB      184             0.0000000000
     20949       184  CHL1      C18            46.3508769478       44.1943344237      -10.1680000000  MEMB      184             0.0000000000
     20950       184  CHL1      H18A           45.5368826229       43.4816881286       -9.9153000000  MEMB      184             0.0000000000
     20951       184  CHL1      H18B           46.4597109803       45.0363611739       -9.4514400000  MEMB      184             0.0000000000
     20952       184  CHL1      H18C           46.0946667378       44.5949636177      -11.1720800000  MEMB      184             0.0000000000
     20953       184  CHL1      C12            48.7584412467       44.1755085411      -10.9026700000  MEMB      184             0.0000000000
     20954       184  CHL1      H12A           48.9367038593       45.1853591621      -10.4751700000  MEMB      184             0.0000000000
     20955       184  CHL1      H12B           49.6807851026       43.5567278303      -10.8761200000  MEMB      184             0.0000000000
     20956       184  CHL1      C11            48.3929227095       44.2760572326      -12.3555200000  MEMB      184             0.0000000000
     20957       184  CHL1      H11A           47.5337444924       44.9735318255      -12.4538500000  MEMB      184             0.0000000000
     20958       184  CHL1      H11B           49.2089926174       44.7424244650      -12.9478600000  MEMB      184             0.0000000000
     20959       184  CHL1      C9             48.0526958769       42.9403862188      -13.1379900000  MEMB      184             0.0000000000
     20960       184  CHL1      H9             48.9831210909       42.3332486412      -13.1335300000  MEMB      184             0.0000000000
     20961       184  CHL1      C10            47.6156928383       43.1787313807      -14.5679800000  MEMB      184             0.0000000000
     20962       184  CHL1      C19            46.3604501648       44.0631926107      -14.7009600000  MEMB      184             0.0000000000
     20963       184  CHL1      H19A           45.4988940347       43.7989412018      -14.0511800000  MEMB      184             0.0000000000
     20964       184  CHL1      H19B           46.5682024407       45.1402408198      -14.5245900000  MEMB      184             0.0000000000
     20965       184  CHL1      H19C           45.8061706489       44.0799447664      -15.6636800000  MEMB      184             0.0000000000
     20966       184  CHL1      C1             48.7495424309       43.8439080416      -15.3620500000  MEMB      184             0.0000000000
     20967       184  CHL1      H1A            48.9542237236       44.8719541328      -14.9939000000  MEMB      184             0.0000000000
     20968       184  CHL1      H1B            49.7691713298       43.4637654258      -15.1380500000  MEMB      184             0.0000000000
     20969       184  CHL1      C2             48.6450830456       43.6950569061      -16.9086800000  MEMB      184             0.0000000000
     20970       184  CHL1      H2A            49.6126793224       44.0506106973      -17.3229800000  MEMB      184             0.0000000000
     20971       184  CHL1      H2B            47.7666074687       44.3082302197      -17.2029900000  MEMB      184             0.0000000000
     20972       184  CHL1      C20            47.8571181300       43.8031470713       -7.5046700000  MEMB      184             0.0000000000
     20973       184  CHL1      H20            46.7903078324       44.1131678215       -7.4939200000  MEMB      184             0.0000000000
     20974       184  CHL1      C21            48.6114712576       45.1632888000       -7.7025300000  MEMB      184             0.0000000000
     20975       184  CHL1      H21A           48.7326784413       45.6797832813       -6.7263800000  MEMB      184             0.0000000000
     20976       184  CHL1      H21B           48.1101726472       45.8486358433       -8.4189900000  MEMB      184             0.0000000000
     20977       184  CHL1      H21C           49.6815645669       45.0294649610       -7.9695800000  MEMB      184             0.0000000000
     20978       184  CHL1      C22            48.2849232450       43.1725381595       -6.1838100000  MEMB      184             0.0000000000
     20979       184  CHL1      H22A           47.9619910102       42.1098527337       -6.2108600000  MEMB      184             0.0000000000
     20980       184  CHL1      H22B           49.3957020551       43.1720616224       -6.1615900000  MEMB      184             0.0000000000
     20981       184  CHL1      C23            47.8338984741       43.8908987390       -4.8806600000  MEMB      184             0.0000000000
     20982       184  CHL1      H23A           47.9025516964       44.9891479999       -5.0338600000  MEMB      184             0.0000000000
     20983       184  CHL1      H23B           46.7972167258       43.5840389230       -4.6248300000  MEMB      184             0.0000000000
     20984       184  CHL1      C24            48.7862536898       43.5360968818       -3.6847500000  MEMB      184             0.0000000000
     20985       184  CHL1      H24A           48.9215473543       42.4346014298       -3.6324500000  MEMB      184             0.0000000000
     20986       184  CHL1      H24B           49.7458014268       44.0147465019       -3.9754100000  MEMB      184             0.0000000000
     20987       184  CHL1      C25            48.3592903796       44.0712904265       -2.2993400000  MEMB      184             0.0000000000
     20988       184  CHL1      H25            48.0206335877       45.1126055884       -2.4871900000  MEMB      184             0.0000000000
     20989       184  CHL1      C26            47.0913548172       43.3200857747       -1.7628700000  MEMB      184             0.0000000000
     20990       184  CHL1      H26A           47.2348418901       42.2184387942       -1.7740600000  MEMB      184             0.0000000000
     20991       184  CHL1      H26B           46.7555525283       43.7689554026       -0.8036600000  MEMB      184             0.0000000000
     20992       184  CHL1      H26C           46.3178018558       43.6356248453       -2.4952400000  MEMB      184             0.0000000000
     20993       184  CHL1      C27            49.4706280723       43.9236393014       -1.2888500000  MEMB      184             0.0000000000
     20994       184  CHL1      H27A           49.1367680077       44.2800942250       -0.2909500000  MEMB      184             0.0000000000
     20995       184  CHL1      H27B           49.7897098169       42.8665201521       -1.1663700000  MEMB      184             0.0000000000
     20996       184  CHL1      H27C           50.4582051153       44.3374136558       -1.5851400000  MEMB      184             0.0000000000
     20997       185  CHL1      C3             46.6437986248       50.1848383981      -17.3602600000  MEMB      185             0.0000000000
     20998       185  CHL1      H3             46.0302491203       49.3021152532      -17.6407600000  MEMB      185             0.0000000000
     20999       185  CHL1      O3             47.0083767752       50.8222522019      -18.6397400000  MEMB      185             0.0000000000
     21000       185  CHL1      H3'            46.4173108568       51.5357515153      -18.8910600000  MEMB      185             0.0000000000
     21001       185  CHL1      C4             45.8299187559       51.1608145609      -16.5199100000  MEMB      185             0.0000000000
     21002       185  CHL1      H4A            46.4284503815       52.0952833425      -16.4664500000  MEMB      185             0.0000000000
     21003       185  CHL1      H4B            44.8019053822       51.2803631698      -16.9238900000  MEMB      185             0.0000000000
     21004       185  CHL1      C5             45.7014766453       50.7400807897      -15.0722100000  MEMB      185             0.0000000000
     21005       185  CHL1      C6             44.5202007855       50.7469632295      -14.4806700000  MEMB      185             0.0000000000
     21006       185  CHL1      H6             43.7106745788       51.1261541672      -15.1216700000  MEMB      185             0.0000000000
     21007       185  CHL1      C7             44.2057532309       50.4431972099      -13.0070700000  MEMB      185             0.0000000000
     21008       185  CHL1      H7A            43.4482630092       51.1887428422      -12.6835400000  MEMB      185             0.0000000000
     21009       185  CHL1      H7B            43.6577057653       49.4787838398      -12.9448900000  MEMB      185             0.0000000000
     21010       185  CHL1      C8             45.5191322715       50.3894555296      -12.1904200000  MEMB      185             0.0000000000
     21011       185  CHL1      H8             45.9159244801       51.4237471949      -12.1059800000  MEMB      185             0.0000000000
     21012       185  CHL1      C14            45.3188804494       49.7318154154      -10.8766100000  MEMB      185             0.0000000000
     21013       185  CHL1      H14            45.0936273927       48.6645799213      -11.0877800000  MEMB      185             0.0000000000
     21014       185  CHL1      C15            44.1825313884       50.3656738268      -10.0036300000  MEMB      185             0.0000000000
     21015       185  CHL1      H15A           44.2475937650       51.4731180439       -9.9430800000  MEMB      185             0.0000000000
     21016       185  CHL1      H15B           43.1775020336       50.0262200325      -10.3337800000  MEMB      185             0.0000000000
     21017       185  CHL1      C16            44.5562083814       49.8020716438       -8.6216900000  MEMB      185             0.0000000000
     21018       185  CHL1      H16A           44.5885073353       50.6331417155       -7.8850700000  MEMB      185             0.0000000000
     21019       185  CHL1      H16B           43.8608507659       49.0320241306       -8.2244200000  MEMB      185             0.0000000000
     21020       185  CHL1      C17            45.9450764528       49.1669072849       -8.6520000000  MEMB      185             0.0000000000
     21021       185  CHL1      H17            45.7056307084       48.0965462004       -8.8289800000  MEMB      185             0.0000000000
     21022       185  CHL1      C13            46.5542131668       49.6787409986       -9.9626000000  MEMB      185             0.0000000000
     21023       185  CHL1      C18            47.0620273002       51.1402144833       -9.6585800000  MEMB      185             0.0000000000
     21024       185  CHL1      H18A           46.2256185562       51.7678482296       -9.2833300000  MEMB      185             0.0000000000
     21025       185  CHL1      H18B           47.9602062654       51.1644811728       -9.0051200000  MEMB      185             0.0000000000
     21026       185  CHL1      H18C           47.3719972144       51.6538170039      -10.5937000000  MEMB      185             0.0000000000
     21027       185  CHL1      C12            47.7101938042       48.8199635658      -10.5671400000  MEMB      185             0.0000000000
     21028       185  CHL1      H12A           48.7184065321       48.7869839081      -10.1016000000  MEMB      185             0.0000000000
     21029       185  CHL1      H12B           47.3952051367       47.7545748915      -10.5598500000  MEMB      185             0.0000000000
     21030       185  CHL1      C11            47.8849755677       49.3689146422      -11.9860600000  MEMB      185             0.0000000000
     21031       185  CHL1      H11A           48.6267731438       50.1942519787      -11.9323800000  MEMB      185             0.0000000000
     21032       185  CHL1      H11B           48.4734394291       48.5023530402      -12.3563400000  MEMB      185             0.0000000000
     21033       185  CHL1      C9             46.6075573996       49.6298696437      -12.9177600000  MEMB      185             0.0000000000
     21034       185  CHL1      H9             46.1303141714       48.6570177622      -13.1629100000  MEMB      185             0.0000000000
     21035       185  CHL1      C10            46.9361530920       50.2840364388      -14.3113200000  MEMB      185             0.0000000000
     21036       185  CHL1      C19            47.9180918146       51.4498892193      -13.9920900000  MEMB      185             0.0000000000
     21037       185  CHL1      H19A           49.0120412416       51.2614731045      -14.0377800000  MEMB      185             0.0000000000
     21038       185  CHL1      H19B           47.8140700647       52.1801383957      -14.8229000000  MEMB      185             0.0000000000
     21039       185  CHL1      H19C           47.6835513153       52.0773383780      -13.1057300000  MEMB      185             0.0000000000
     21040       185  CHL1      C1             47.7086372139       49.2710641651      -15.1891500000  MEMB      185             0.0000000000
     21041       185  CHL1      H1A            48.7206364011       49.0383139823      -14.7941500000  MEMB      185             0.0000000000
     21042       185  CHL1      H1B            47.0997339481       48.3493999562      -15.3077800000  MEMB      185             0.0000000000
     21043       185  CHL1      C2             47.9130861895       49.6758761125      -16.6690000000  MEMB      185             0.0000000000
     21044       185  CHL1      H2A            48.3934424223       48.9031989854      -17.3066000000  MEMB      185             0.0000000000
     21045       185  CHL1      H2B            48.6806104759       50.4733601946      -16.7651600000  MEMB      185             0.0000000000
     21046       185  CHL1      C20            46.6090077402       49.2970881210       -7.2342200000  MEMB      185             0.0000000000
     21047       185  CHL1      H20            46.7775413093       50.3756309107       -7.0276600000  MEMB      185             0.0000000000
     21048       185  CHL1      C21            48.0409959157       48.7289911000       -7.3236700000  MEMB      185             0.0000000000
     21049       185  CHL1      H21A           48.6051695980       48.6771398106       -6.3679900000  MEMB      185             0.0000000000
     21050       185  CHL1      H21B           48.6426583943       49.2642454094       -8.0890600000  MEMB      185             0.0000000000
     21051       185  CHL1      H21C           47.8882071288       47.7060409828       -7.7293200000  MEMB      185             0.0000000000
     21052       185  CHL1      C22            45.9111043929       48.7284437981       -6.1114100000  MEMB      185             0.0000000000
     21053       185  CHL1      H22A           44.8411817296       48.9388523803       -6.3242800000  MEMB      185             0.0000000000
     21054       185  CHL1      H22B           46.0544899292       47.6473601902       -5.8992200000  MEMB      185             0.0000000000
     21055       185  CHL1      C23            46.2413622887       49.3738654186       -4.7909000000  MEMB      185             0.0000000000
     21056       185  CHL1      H23A           46.9999922166       48.8164935493       -4.2008600000  MEMB      185             0.0000000000
     21057       185  CHL1      H23B           46.7771318620       50.3421176767       -4.8896900000  MEMB      185             0.0000000000
     21058       185  CHL1      C24            44.9959114449       49.4590657365       -3.9193900000  MEMB      185             0.0000000000
     21059       185  CHL1      H24A           45.3905451726       49.9610726030       -3.0102200000  MEMB      185             0.0000000000
     21060       185  CHL1      H24B           44.3642989721       50.2491664450       -4.3788800000  MEMB      185             0.0000000000
     21061       185  CHL1      C25            44.1876001259       48.1810576274       -3.5917300000  MEMB      185             0.0000000000
     21062       185  CHL1      H25            44.0588007927       47.6060820682       -4.5336000000  MEMB      185             0.0000000000
     21063       185  CHL1      C26            44.9376162021       47.2593384354       -2.6358800000  MEMB      185             0.0000000000
     21064       185  CHL1      H26A           44.4732172449       46.2639614568       -2.4689200000  MEMB      185             0.0000000000
     21065       185  CHL1      H26B           45.9391694539       47.0327419697       -3.0599700000  MEMB      185             0.0000000000
     21066       185  CHL1      H26C           45.1648760710       47.7611855911       -1.6710900000  MEMB      185             0.0000000000
     21067       185  CHL1      C27            42.8089196169       48.5235910672       -3.0068100000  MEMB      185             0.0000000000
     21068       185  CHL1      H27A           42.2099053154       48.8777950032       -3.8728600000  MEMB      185             0.0000000000
     21069       185  CHL1      H27B           42.3026170653       47.6153521312       -2.6155500000  MEMB      185             0.0000000000
     21070       185  CHL1      H27C           42.8106769470       49.3169813550       -2.2291000000  MEMB      185             0.0000000000
     21071       186  CHL1      C3             56.2127031621       -4.6081785485      -17.3043450000  MEMB      186             0.0000000000
     21072       186  CHL1      H3             55.3454696983       -5.2980404547      -17.2248950000  MEMB      186             0.0000000000
     21073       186  CHL1      O3             56.3386336379       -4.2675893315      -18.6956550000  MEMB      186             0.0000000000
     21074       186  CHL1      H3'            55.4809700308       -3.9797552700      -19.0168450000  MEMB      186             0.0000000000
     21075       186  CHL1      C4             56.0534871376       -3.3499301970      -16.4726150000  MEMB      186             0.0000000000
     21076       186  CHL1      H4A            56.9222440254       -2.6904761216      -16.6840350000  MEMB      186             0.0000000000
     21077       186  CHL1      H4B            55.1088827327       -2.8286262826      -16.7377250000  MEMB      186             0.0000000000
     21078       186  CHL1      C5             56.1816225038       -3.7353070478      -14.9616350000  MEMB      186             0.0000000000
     21079       186  CHL1      C6             55.1278226044       -3.5314634506      -14.1873450000  MEMB      186             0.0000000000
     21080       186  CHL1      H6             54.2245830672       -2.9920401566      -14.5085550000  MEMB      186             0.0000000000
     21081       186  CHL1      C7             55.0530942028       -3.9002442355      -12.7582050000  MEMB      186             0.0000000000
     21082       186  CHL1      H7A            54.5463650308       -3.1291976587      -12.1393050000  MEMB      186             0.0000000000
     21083       186  CHL1      H7B            54.5461340979       -4.8695536020      -12.5639250000  MEMB      186             0.0000000000
     21084       186  CHL1      C8             56.5175608223       -4.1964091912      -12.1667550000  MEMB      186             0.0000000000
     21085       186  CHL1      H8             57.0380750363       -3.2153084622      -12.1377050000  MEMB      186             0.0000000000
     21086       186  CHL1      C14            56.3631350052       -4.6922072524      -10.7036050000  MEMB      186             0.0000000000
     21087       186  CHL1      H14            55.6612495193       -5.5518775951      -10.6520750000  MEMB      186             0.0000000000
     21088       186  CHL1      C15            55.7855492793       -3.7132708775       -9.6065950000  MEMB      186             0.0000000000
     21089       186  CHL1      H15A           56.2265273333       -2.7124594165       -9.8020950000  MEMB      186             0.0000000000
     21090       186  CHL1      H15B           54.6850739887       -3.6364976138       -9.4747350000  MEMB      186             0.0000000000
     21091       186  CHL1      C16            56.3346852699       -4.2613791069       -8.3656550000  MEMB      186             0.0000000000
     21092       186  CHL1      H16A           56.8953121841       -3.4604657076       -7.8378950000  MEMB      186             0.0000000000
     21093       186  CHL1      H16B           55.4761771270       -4.5871990825       -7.7402450000  MEMB      186             0.0000000000
     21094       186  CHL1      C17            57.2221907727       -5.5227768057       -8.6387850000  MEMB      186             0.0000000000
     21095       186  CHL1      H17            56.5695496921       -6.4217170752       -8.6557050000  MEMB      186             0.0000000000
     21096       186  CHL1      C13            57.6674810819       -5.2495721177      -10.1110250000  MEMB      186             0.0000000000
     21097       186  CHL1      C18            58.6663198450       -4.0719014912      -10.1381450000  MEMB      186             0.0000000000
     21098       186  CHL1      H18A           58.4775639323       -3.3155978865       -9.3464950000  MEMB      186             0.0000000000
     21099       186  CHL1      H18B           59.6645433666       -4.4846137943       -9.8782850000  MEMB      186             0.0000000000
     21100       186  CHL1      H18C           58.8673838985       -3.6002344703      -11.1237550000  MEMB      186             0.0000000000
     21101       186  CHL1      C12            58.0213662967       -6.4398727512      -11.0096850000  MEMB      186             0.0000000000
     21102       186  CHL1      H12A           58.8451656978       -7.0682885886      -10.6087250000  MEMB      186             0.0000000000
     21103       186  CHL1      H12B           57.2066361979       -7.1935130578      -11.0602650000  MEMB      186             0.0000000000
     21104       186  CHL1      C11            58.3200729910       -5.9606958772      -12.4681050000  MEMB      186             0.0000000000
     21105       186  CHL1      H11A           59.2619930749       -5.3787781884      -12.5601350000  MEMB      186             0.0000000000
     21106       186  CHL1      H11B           58.3949813784       -6.8871259231      -13.0767350000  MEMB      186             0.0000000000
     21107       186  CHL1      C9             57.1899374110       -5.2267020647      -13.0844450000  MEMB      186             0.0000000000
     21108       186  CHL1      H9             56.3678972274       -5.9724207263      -13.1342050000  MEMB      186             0.0000000000
     21109       186  CHL1      C10            57.3442585776       -4.6840860514      -14.5156850000  MEMB      186             0.0000000000
     21110       186  CHL1      C19            58.7093497492       -3.8002695316      -14.5340450000  MEMB      186             0.0000000000
     21111       186  CHL1      H19A           58.6399498231       -3.0749516894      -15.3727450000  MEMB      186             0.0000000000
     21112       186  CHL1      H19B           58.8356858288       -3.3222049544      -13.5391450000  MEMB      186             0.0000000000
     21113       186  CHL1      H19C           59.5713658556       -4.4733433968      -14.7295450000  MEMB      186             0.0000000000
     21114       186  CHL1      C1             57.4170328031       -5.8917773639      -15.5177550000  MEMB      186             0.0000000000
     21115       186  CHL1      H1A            58.1823538136       -6.6302730521      -15.1964850000  MEMB      186             0.0000000000
     21116       186  CHL1      H1B            56.4394176473       -6.3920234307      -15.3493850000  MEMB      186             0.0000000000
     21117       186  CHL1      C2             57.4484050337       -5.4799605541      -16.9929450000  MEMB      186             0.0000000000
     21118       186  CHL1      H2A            57.3164479622       -6.3608774722      -17.6569550000  MEMB      186             0.0000000000
     21119       186  CHL1      H2B            58.3652926414       -4.8709614984      -17.1438550000  MEMB      186             0.0000000000
     21120       186  CHL1      C20            58.2552541631       -5.8475803855       -7.5452150000  MEMB      186             0.0000000000
     21121       186  CHL1      H20            58.8845490579       -4.9563207935       -7.3355550000  MEMB      186             0.0000000000
     21122       186  CHL1      C21            59.2096762513       -6.8882842487       -8.0207850000  MEMB      186             0.0000000000
     21123       186  CHL1      H21A           59.8908790100       -6.4075465764       -8.7550850000  MEMB      186             0.0000000000
     21124       186  CHL1      H21B           58.7820306805       -7.7623781927       -8.5568750000  MEMB      186             0.0000000000
     21125       186  CHL1      H21C           59.7593488351       -7.1345035339       -7.0872150000  MEMB      186             0.0000000000
     21126       186  CHL1      C22            57.6083307492       -6.3556139516       -6.2103250000  MEMB      186             0.0000000000
     21127       186  CHL1      H22A           56.5617496950       -5.9848924050       -6.2494750000  MEMB      186             0.0000000000
     21128       186  CHL1      H22B           57.5951515998       -7.4597968595       -6.0881850000  MEMB      186             0.0000000000
     21129       186  CHL1      C23            58.4172080563       -5.8298186829       -4.9614050000  MEMB      186             0.0000000000
     21130       186  CHL1      H23A           59.3065994167       -6.4627792850       -4.7548750000  MEMB      186             0.0000000000
     21131       186  CHL1      H23B           58.7931330981       -4.8173320130       -5.2219250000  MEMB      186             0.0000000000
     21132       186  CHL1      C24            57.5728248550       -5.9018417105       -3.6392650000  MEMB      186             0.0000000000
     21133       186  CHL1      H24A           58.2583613311       -5.5585174870       -2.8352250000  MEMB      186             0.0000000000
     21134       186  CHL1      H24B           56.7286757709       -5.1934636188       -3.7804650000  MEMB      186             0.0000000000
     21135       186  CHL1      C25            56.8651203224       -7.2570184322       -3.3490650000  MEMB      186             0.0000000000
     21136       186  CHL1      H25            56.2670781484       -7.6448838624       -4.2012450000  MEMB      186             0.0000000000
     21137       186  CHL1      C26            57.8790476300       -8.2252440154       -2.8610150000  MEMB      186             0.0000000000
     21138       186  CHL1      H26A           57.4722826227       -9.2498946948       -2.9986550000  MEMB      186             0.0000000000
     21139       186  CHL1      H26B           58.7820448286       -8.0130640892       -3.4725050000  MEMB      186             0.0000000000
     21140       186  CHL1      H26C           58.1272262676       -8.0549206795       -1.7915750000  MEMB      186             0.0000000000
     21141       186  CHL1      C27            55.9531190230       -7.1191016851       -2.1300250000  MEMB      186             0.0000000000
     21142       186  CHL1      H27A           56.4002739221       -6.8747557619       -1.1427650000  MEMB      186             0.0000000000
     21143       186  CHL1      H27B           55.1004442069       -6.4094688444       -2.1907550000  MEMB      186             0.0000000000
     21144       186  CHL1      H27C           55.4852572287       -8.1205336387       -2.0180250000  MEMB      186             0.0000000000
     21145       187  POPC      N              33.2731024940       18.1579881401      -18.8537594078  MEMB      187             0.0000000000
     21146       187  POPC      C12            33.0325521130       16.9953925476      -17.8161162784  MEMB      187             0.0000000000
     21147       187  POPC      H12A           32.0540552212       17.2929784294      -17.4691487092  MEMB      187             0.0000000000
     21148       187  POPC      H12B           33.7470547279       17.0854519347      -17.0112712868  MEMB      187             0.0000000000
     21149       187  POPC      C13            34.6113082466       17.9724983167      -19.5033608117  MEMB      187             0.0000000000
     21150       187  POPC      H13A           34.5951522148       17.1143553480      -20.1588984810  MEMB      187             0.0000000000
     21151       187  POPC      H13B           34.8194663448       18.8259090373      -20.1316605259  MEMB      187             0.0000000000
     21152       187  POPC      H13C           35.4353516733       17.9917442435      -18.8055196720  MEMB      187             0.0000000000
     21153       187  POPC      C14            32.2626624208       18.3069392612      -19.9321568698  MEMB      187             0.0000000000
     21154       187  POPC      H14A           32.4842769994       17.4673352429      -20.5743033517  MEMB      187             0.0000000000
     21155       187  POPC      H14B           31.2777711954       18.3228675337      -19.4892848750  MEMB      187             0.0000000000
     21156       187  POPC      H14C           32.5029099550       19.1948688205      -20.4980741425  MEMB      187             0.0000000000
     21157       187  POPC      C15            33.3311599608       19.4242922107      -18.0765339363  MEMB      187             0.0000000000
     21158       187  POPC      H15A           34.2751362983       19.4091780429      -17.5520530594  MEMB      187             0.0000000000
     21159       187  POPC      H15B           32.5023876339       19.3679947402      -17.3863404474  MEMB      187             0.0000000000
     21160       187  POPC      H15C           33.4005328280       20.2711311954      -18.7432058414  MEMB      187             0.0000000000
     21161       187  POPC      C11            33.0735554727       15.6194770936      -18.3688733986  MEMB      187             0.0000000000
     21162       187  POPC      H11A           32.8151816200       14.9213415250      -17.5441487619  MEMB      187             0.0000000000
     21163       187  POPC      H11B           34.0911558717       15.2259155047      -18.5784432780  MEMB      187             0.0000000000
     21164       187  POPC      P              30.8178708091       14.9528908005      -19.3203784202  MEMB      187             0.0000000000
     21165       187  POPC      O13            30.3363243041       14.3281256822      -20.6106368377  MEMB      187             0.0000000000
     21166       187  POPC      O14            30.0633280681       16.1400843213      -18.8039058598  MEMB      187             0.0000000000
     21167       187  POPC      O12            32.2923364053       15.3803147176      -19.5278120998  MEMB      187             0.0000000000
     21168       187  POPC      O11            30.9805526220       13.8640040651      -18.1864660529  MEMB      187             0.0000000000
     21169       187  POPC      C1             30.2763199027       12.6182720302      -18.3386134730  MEMB      187             0.0000000000
     21170       187  POPC      HA             30.8004708966       12.0701117437      -19.1504673748  MEMB      187             0.0000000000
     21171       187  POPC      HB             29.1988437077       12.8091119515      -18.5308275732  MEMB      187             0.0000000000
     21172       187  POPC      C2             30.3531434345       11.7148431679      -17.0895583125  MEMB      187             0.0000000000
     21173       187  POPC      HS             29.5751057497       10.9217623112      -17.0884781611  MEMB      187             0.0000000000
     21174       187  POPC      O21            30.1879776479       12.6089446039      -15.9443154049  MEMB      187             0.0000000000
     21175       187  POPC      C21            29.9189811024       11.9470186581      -14.7825792686  MEMB      187             0.0000000000
     21176       187  POPC      O22            29.8186110152       10.7413839145      -14.6539683011  MEMB      187             0.0000000000
     21177       187  POPC      C22            29.7951740922       12.9445077626      -13.6099788190  MEMB      187             0.0000000000
     21178       187  POPC      H2R            29.0872512925       13.7407287212      -13.9249368050  MEMB      187             0.0000000000
     21179       187  POPC      H2S            30.8440053877       13.2619272028      -13.4268979488  MEMB      187             0.0000000000
     21180       187  POPC      C3             31.7494924110       11.0141399384      -17.0466199906  MEMB      187             0.0000000000
     21181       187  POPC      HX             31.9199992062       10.3537682922      -17.9236360580  MEMB      187             0.0000000000
     21182       187  POPC      HY             31.7169328543       10.3130571604      -16.1853745709  MEMB      187             0.0000000000
     21183       187  POPC      O31            32.8450583547       11.9052433516      -16.9272984120  MEMB      187             0.0000000000
     21184       187  POPC      C31            33.8807071832       11.5343508471      -16.1384242024  MEMB      187             0.0000000000
     21185       187  POPC      O32            33.9283926523       10.6322076948      -15.3132239429  MEMB      187             0.0000000000
     21186       187  POPC      C32            35.1181674210       12.4609588052      -16.4938218284  MEMB      187             0.0000000000
     21187       187  POPC      H2X            34.8958638249       13.0666876051      -17.3982524255  MEMB      187             0.0000000000
     21188       187  POPC      H2Y            36.0453136826       11.9043752595      -16.7486467571  MEMB      187             0.0000000000
     21189       187  POPC      C23            29.2617232337       12.3632793658      -12.3210212454  MEMB      187             0.0000000000
     21190       187  POPC      H3R            30.0379583735       11.6281219371      -12.0188236100  MEMB      187             0.0000000000
     21191       187  POPC      H3S            28.2266811727       11.9979501648      -12.4929038240  MEMB      187             0.0000000000
     21192       187  POPC      C24            29.1915634772       13.3802063401      -11.1241205638  MEMB      187             0.0000000000
     21193       187  POPC      H4R            28.7232673361       12.7963475640      -10.3030675838  MEMB      187             0.0000000000
     21194       187  POPC      H4S            28.6940091513       14.3141636258      -11.4624757357  MEMB      187             0.0000000000
     21195       187  POPC      C25            30.5669986088       13.8245631093      -10.4547380128  MEMB      187             0.0000000000
     21196       187  POPC      H5R            30.3255013394       14.5081294987       -9.6128727773  MEMB      187             0.0000000000
     21197       187  POPC      H5S            31.0670008652       14.4429889047      -11.2305391945  MEMB      187             0.0000000000
     21198       187  POPC      C26            31.5867999005       12.7694522958       -9.9571297683  MEMB      187             0.0000000000
     21199       187  POPC      H6R            32.0302431435       12.3994700872      -10.9062298161  MEMB      187             0.0000000000
     21200       187  POPC      H6S            31.0103095947       11.9266107441       -9.5194108999  MEMB      187             0.0000000000
     21201       187  POPC      C27            32.7585524064       13.2149361033       -9.0125434561  MEMB      187             0.0000000000
     21202       187  POPC      H7R            32.3947770623       13.6769328322       -8.0699151144  MEMB      187             0.0000000000
     21203       187  POPC      H7S            33.2356207815       13.9420351300       -9.7039576925  MEMB      187             0.0000000000
     21204       187  POPC      C28            33.7119342617       12.0958895145       -8.6304793600  MEMB      187             0.0000000000
     21205       187  POPC      H8R            34.3760384048       12.5926300252       -7.8911990208  MEMB      187             0.0000000000
     21206       187  POPC      H8S            34.1380451950       11.8229832379       -9.6195558305  MEMB      187             0.0000000000
     21207       187  POPC      C29            32.9916898448       10.8466661732       -8.1134443861  MEMB      187             0.0000000000
     21208       187  POPC      H91            32.2341485055       10.4524781202       -8.8068037166  MEMB      187             0.0000000000
     21209       187  POPC      C210           33.2169955662       10.1743119085       -6.9432181852  MEMB      187             0.0000000000
     21210       187  POPC      H101           32.8473140729        9.1416483318       -6.8598995429  MEMB      187             0.0000000000
     21211       187  POPC      C211           34.2400650069       10.5575329293       -5.8909491872  MEMB      187             0.0000000000
     21212       187  POPC      H11R           35.0940873273       11.1721406426       -6.2476351249  MEMB      187             0.0000000000
     21213       187  POPC      H11S           34.5894149951        9.6419459719       -5.3675221935  MEMB      187             0.0000000000
     21214       187  POPC      C212           33.4983892095       11.3310332229       -4.7591595256  MEMB      187             0.0000000000
     21215       187  POPC      H12R           33.0965620773       12.2741534316       -5.1873880479  MEMB      187             0.0000000000
     21216       187  POPC      H12S           34.1955309006       11.5406698377       -3.9198938970  MEMB      187             0.0000000000
     21217       187  POPC      C213           32.3821604333       10.4503151290       -4.1207248834  MEMB      187             0.0000000000
     21218       187  POPC      H13R           32.7640818944        9.4863376112       -3.7217207142  MEMB      187             0.0000000000
     21219       187  POPC      H13S           31.6560375262       10.1944995750       -4.9217392400  MEMB      187             0.0000000000
     21220       187  POPC      C214           31.6628409596       11.1877449834       -2.9420203300  MEMB      187             0.0000000000
     21221       187  POPC      H14R           31.4134532375       12.2072045712       -3.3064762175  MEMB      187             0.0000000000
     21222       187  POPC      H14S           32.3966919361       11.2293888615       -2.1089230263  MEMB      187             0.0000000000
     21223       187  POPC      C215           30.4661438640       10.3702350910       -2.5341312669  MEMB      187             0.0000000000
     21224       187  POPC      H15R           30.7747014971        9.3250216463       -2.3181669146  MEMB      187             0.0000000000
     21225       187  POPC      H15S           29.7405393343       10.3231640082       -3.3741337999  MEMB      187             0.0000000000
     21226       187  POPC      C216           29.7013874030       11.0883367334       -1.3763089236  MEMB      187             0.0000000000
     21227       187  POPC      H16R           28.6279402234       10.8333347492       -1.2459022352  MEMB      187             0.0000000000
     21228       187  POPC      H16S           29.7637892059       12.1752281107       -1.5978816842  MEMB      187             0.0000000000
     21229       187  POPC      C217           30.4454190256       11.0015172169       -0.0420745542  MEMB      187             0.0000000000
     21230       187  POPC      H17R           31.5268323023       11.2558419663       -0.0556894830  MEMB      187             0.0000000000
     21231       187  POPC      H17S           30.3940976169        9.9346324898        0.2636124947  MEMB      187             0.0000000000
     21232       187  POPC      C218           29.7515569808       11.8264873983        1.0856341376  MEMB      187             0.0000000000
     21233       187  POPC      H18R           28.6440289340       11.7402580414        1.0692842833  MEMB      187             0.0000000000
     21234       187  POPC      H18S           30.0568088699       12.8623190666        0.8244907992  MEMB      187             0.0000000000
     21235       187  POPC      H18T           30.1929919144       11.5397519061        2.0640204723  MEMB      187             0.0000000000
     21236       187  POPC      C33            35.3852188656       13.3545528229      -15.3153482252  MEMB      187             0.0000000000
     21237       187  POPC      H3X            36.2340212361       13.9359836899      -15.7346257290  MEMB      187             0.0000000000
     21238       187  POPC      H3Y            35.6746609690       12.7118898585      -14.4565532301  MEMB      187             0.0000000000
     21239       187  POPC      C34            34.2609812815       14.2997102838      -14.8321085308  MEMB      187             0.0000000000
     21240       187  POPC      H4X            33.4058243190       13.5991375347      -14.7215404239  MEMB      187             0.0000000000
     21241       187  POPC      H4Y            33.9203858380       15.0215013226      -15.6049820923  MEMB      187             0.0000000000
     21242       187  POPC      C35            34.6553818203       14.9711577076      -13.5076698208  MEMB      187             0.0000000000
     21243       187  POPC      H5X            35.6444497525       15.4089661809      -13.7614201820  MEMB      187             0.0000000000
     21244       187  POPC      H5Y            34.9075301862       14.2588211146      -12.6932255972  MEMB      187             0.0000000000
     21245       187  POPC      C36            33.6465498819       15.9810757093      -13.0632084836  MEMB      187             0.0000000000
     21246       187  POPC      H6X            32.7468015596       15.6671366579      -12.4920553590  MEMB      187             0.0000000000
     21247       187  POPC      H6Y            33.1213228091       16.4033780206      -13.9464517046  MEMB      187             0.0000000000
     21248       187  POPC      C37            34.2315104227       17.1508563101      -12.3122306190  MEMB      187             0.0000000000
     21249       187  POPC      H7X            33.4492911263       17.9266504371      -12.1687124601  MEMB      187             0.0000000000
     21250       187  POPC      H7Y            35.1465386956       17.5412291260      -12.8068553756  MEMB      187             0.0000000000
     21251       187  POPC      C38            34.6054148322       16.8698057159      -10.8736574114  MEMB      187             0.0000000000
     21252       187  POPC      H8X            35.4842915767       17.5168062454      -10.6656021749  MEMB      187             0.0000000000
     21253       187  POPC      H8Y            34.9278576523       15.8081609213      -10.8165411844  MEMB      187             0.0000000000
     21254       187  POPC      C39            33.4661960183       17.1360936000       -9.9159207880  MEMB      187             0.0000000000
     21255       187  POPC      H9X            32.6107781251       16.4374569168      -10.0362870211  MEMB      187             0.0000000000
     21256       187  POPC      H9Y            33.1417671132       18.1963816887       -9.9856059042  MEMB      187             0.0000000000
     21257       187  POPC      C310           33.8739069561       16.9862092659       -8.4427804348  MEMB      187             0.0000000000
     21258       187  POPC      H10X           34.5678689973       17.7590965008       -8.0485939433  MEMB      187             0.0000000000
     21259       187  POPC      H10Y           34.2111712610       15.9338613373       -8.3281589763  MEMB      187             0.0000000000
     21260       187  POPC      C311           32.6882828301       17.0802534540       -7.4103364091  MEMB      187             0.0000000000
     21261       187  POPC      H11X           31.9264839077       16.2983960617       -7.6169334608  MEMB      187             0.0000000000
     21262       187  POPC      H11Y           32.2793111768       18.0955311323       -7.6007953157  MEMB      187             0.0000000000
     21263       187  POPC      C312           33.0993768817       16.9259860201       -5.9308665779  MEMB      187             0.0000000000
     21264       187  POPC      H12X           32.1734809285       17.1042540658       -5.3432799176  MEMB      187             0.0000000000
     21265       187  POPC      H12Y           33.8233593372       17.7279530155       -5.6719850031  MEMB      187             0.0000000000
     21266       187  POPC      C313           33.7311598818       15.5696450213       -5.6312392623  MEMB      187             0.0000000000
     21267       187  POPC      H13X           34.8230328431       15.5639561496       -5.8364266504  MEMB      187             0.0000000000
     21268       187  POPC      H13Y           33.2994823749       14.7986397445       -6.3046824647  MEMB      187             0.0000000000
     21269       187  POPC      C314           33.5592787129       15.0374107654       -4.2066748847  MEMB      187             0.0000000000
     21270       187  POPC      H14X           34.1675461458       14.1109353990       -4.1293760447  MEMB      187             0.0000000000
     21271       187  POPC      H14Y           32.4606580422       14.8781334952       -4.1621282969  MEMB      187             0.0000000000
     21272       187  POPC      C315           33.8542720736       16.0241501757       -3.0723621395  MEMB      187             0.0000000000
     21273       187  POPC      H15X           33.2653267361       16.9575180049       -3.1999910157  MEMB      187             0.0000000000
     21274       187  POPC      H15Y           34.9278195828       16.2614036633       -2.9125887386  MEMB      187             0.0000000000
     21275       187  POPC      C316           33.5157826863       15.3215781729       -1.7288179996  MEMB      187             0.0000000000
     21276       187  POPC      H16X           33.5419246246       16.0392022186       -0.8810842824  MEMB      187             0.0000000000
     21277       187  POPC      H16Y           34.2647635113       14.5190884691       -1.5574756990  MEMB      187             0.0000000000
     21278       187  POPC      H16Z           32.4463801663       15.0204288457       -1.7259202511  MEMB      187             0.0000000000
     21279       188  POPC      N             -20.6143356112      -26.8297851297      -19.5314604224  MEMB      188             0.0000000000
     21280       188  POPC      C12           -21.9421165066      -26.9468773082      -18.8437846417  MEMB      188             0.0000000000
     21281       188  POPC      H12A          -21.8549238278      -27.7157451852      -18.0903659670  MEMB      188             0.0000000000
     21282       188  POPC      H12B          -22.6082554244      -27.2334181072      -19.6441303811  MEMB      188             0.0000000000
     21283       188  POPC      C13           -20.4831442832      -28.0955863057      -20.3493264162  MEMB      188             0.0000000000
     21284       188  POPC      H13A          -21.3136363471      -28.0874680871      -21.0397010376  MEMB      188             0.0000000000
     21285       188  POPC      H13B          -19.5445595772      -28.0071060405      -20.8762325375  MEMB      188             0.0000000000
     21286       188  POPC      H13C          -20.5689979085      -29.0075219574      -19.7771355822  MEMB      188             0.0000000000
     21287       188  POPC      C14           -20.6475151092      -25.7531511511      -20.5181010643  MEMB      188             0.0000000000
     21288       188  POPC      H14A          -20.6047906196      -24.7924879842      -20.0264701776  MEMB      188             0.0000000000
     21289       188  POPC      H14B          -19.7371824800      -25.8103561704      -21.0963936194  MEMB      188             0.0000000000
     21290       188  POPC      H14C          -21.5158308084      -25.7972612192      -21.1587898600  MEMB      188             0.0000000000
     21291       188  POPC      C15           -19.4878116798      -26.7468386266      -18.5268519100  MEMB      188             0.0000000000
     21292       188  POPC      H15A          -19.4840738190      -27.3650874558      -17.6413269077  MEMB      188             0.0000000000
     21293       188  POPC      H15B          -19.5049436919      -25.7998370101      -18.0079159475  MEMB      188             0.0000000000
     21294       188  POPC      H15C          -18.5094864654      -26.8098319745      -18.9799650725  MEMB      188             0.0000000000
     21295       188  POPC      C11           -22.4735304218      -25.6641265004      -18.1982706929  MEMB      188             0.0000000000
     21296       188  POPC      H11A          -21.7685983298      -25.2429441631      -17.4499411230  MEMB      188             0.0000000000
     21297       188  POPC      H11B          -23.4025913524      -25.9775093127      -17.6758167779  MEMB      188             0.0000000000
     21298       188  POPC      P             -22.8939093260      -23.1823585207      -18.6208896097  MEMB      188             0.0000000000
     21299       188  POPC      O13           -23.7742586487      -22.3728459185      -19.5328047520  MEMB      188             0.0000000000
     21300       188  POPC      O14           -21.5292336624      -22.6654296030      -18.4303421373  MEMB      188             0.0000000000
     21301       188  POPC      O12           -22.8387661961      -24.7023263979      -19.1765799830  MEMB      188             0.0000000000
     21302       188  POPC      O11           -23.7092080660      -23.3864299539      -17.2715883294  MEMB      188             0.0000000000
     21303       188  POPC      C1            -25.0955533822      -23.6337781288      -17.3306956906  MEMB      188             0.0000000000
     21304       188  POPC      HA            -25.3502835586      -24.4362391716      -18.0556023121  MEMB      188             0.0000000000
     21305       188  POPC      HB            -25.5306925448      -22.6770515299      -17.6907639604  MEMB      188             0.0000000000
     21306       188  POPC      C2            -25.7652210566      -23.8935700635      -15.9088685409  MEMB      188             0.0000000000
     21307       188  POPC      HS            -26.8508841871      -23.6786537901      -16.0061699633  MEMB      188             0.0000000000
     21308       188  POPC      O21           -25.2564844587      -23.0246624099      -14.9552063669  MEMB      188             0.0000000000
     21309       188  POPC      C21           -25.8463523298      -21.8258537872      -14.8466078903  MEMB      188             0.0000000000
     21310       188  POPC      O22           -26.7180506903      -21.4054226368      -15.5220936884  MEMB      188             0.0000000000
     21311       188  POPC      C22           -25.1067880237      -21.0855020872      -13.7378099850  MEMB      188             0.0000000000
     21312       188  POPC      H2R           -24.9070032545      -20.0347829251      -14.0384694045  MEMB      188             0.0000000000
     21313       188  POPC      H2S           -24.1704652529      -21.5341303567      -13.3423941311  MEMB      188             0.0000000000
     21314       188  POPC      C3            -25.6314801022      -25.3090776720      -15.3391601275  MEMB      188             0.0000000000
     21315       188  POPC      HX            -25.9705141138      -26.1248758347      -16.0128444468  MEMB      188             0.0000000000
     21316       188  POPC      HY            -26.2356322119      -25.3317690703      -14.4070619748  MEMB      188             0.0000000000
     21317       188  POPC      O31           -24.2382501619      -25.5565908908      -15.0335358612  MEMB      188             0.0000000000
     21318       188  POPC      C31           -23.8449254267      -26.7450261494      -14.6688701480  MEMB      188             0.0000000000
     21319       188  POPC      O32           -24.5855323238      -27.6877985331      -14.3721646043  MEMB      188             0.0000000000
     21320       188  POPC      C32           -22.2828613798      -26.8179430860      -14.6708522112  MEMB      188             0.0000000000
     21321       188  POPC      H2X           -21.8797796448      -25.9235347577      -15.1922730141  MEMB      188             0.0000000000
     21322       188  POPC      H2Y           -22.1147164681      -27.6561256710      -15.3804279442  MEMB      188             0.0000000000
     21323       188  POPC      C23           -26.1245254188      -20.8396088626      -12.5832524581  MEMB      188             0.0000000000
     21324       188  POPC      H3R           -27.1313398333      -20.4272716023      -12.8082502493  MEMB      188             0.0000000000
     21325       188  POPC      H3S           -25.6269282718      -20.0400098732      -11.9938801809  MEMB      188             0.0000000000
     21326       188  POPC      C24           -26.1106110352      -22.0445206915      -11.5729016702  MEMB      188             0.0000000000
     21327       188  POPC      H4R           -26.3733333819      -21.6926310795      -10.5523764008  MEMB      188             0.0000000000
     21328       188  POPC      H4S           -25.0748439164      -22.3549693112      -11.3176978845  MEMB      188             0.0000000000
     21329       188  POPC      C25           -27.1784741765      -23.0538660522      -12.0207511791  MEMB      188             0.0000000000
     21330       188  POPC      H5R           -27.0462014826      -23.3514778111      -13.0829433588  MEMB      188             0.0000000000
     21331       188  POPC      H5S           -28.1563002479      -22.5328142330      -11.9390094514  MEMB      188             0.0000000000
     21332       188  POPC      C26           -27.1174164895      -24.3200847007      -11.1912329496  MEMB      188             0.0000000000
     21333       188  POPC      H6R           -27.8140894894      -25.0629371694      -11.6352351623  MEMB      188             0.0000000000
     21334       188  POPC      H6S           -27.3635693324      -24.0508606859      -10.1418294759  MEMB      188             0.0000000000
     21335       188  POPC      C27           -25.7148084919      -25.0350715758      -11.1647264666  MEMB      188             0.0000000000
     21336       188  POPC      H7R           -24.9547716011      -24.2845762593      -10.8590767942  MEMB      188             0.0000000000
     21337       188  POPC      H7S           -25.4708847487      -25.4440446134      -12.1685007457  MEMB      188             0.0000000000
     21338       188  POPC      C28           -25.5820834926      -26.0606059784      -10.0828031397  MEMB      188             0.0000000000
     21339       188  POPC      H8R           -24.5625838340      -26.4534620398      -10.2843116754  MEMB      188             0.0000000000
     21340       188  POPC      H8S           -26.3328366894      -26.8681493459      -10.2190555845  MEMB      188             0.0000000000
     21341       188  POPC      C29           -25.6587443926      -25.3893229376       -8.7303929959  MEMB      188             0.0000000000
     21342       188  POPC      H91           -24.9070899464      -24.5984038490       -8.5908853597  MEMB      188             0.0000000000
     21343       188  POPC      C210          -26.4537867266      -25.6669432304       -7.6404346840  MEMB      188             0.0000000000
     21344       188  POPC      H101          -26.4639085370      -25.0244836594       -6.7476058218  MEMB      188             0.0000000000
     21345       188  POPC      C211          -27.5424919607      -26.7445595567       -7.4840788320  MEMB      188             0.0000000000
     21346       188  POPC      H11R          -27.4828530258      -27.4185037561       -8.3653072516  MEMB      188             0.0000000000
     21347       188  POPC      H11S          -28.5462616327      -26.2691614419       -7.5117161429  MEMB      188             0.0000000000
     21348       188  POPC      C212          -27.3121802219      -27.7761924776       -6.3639939886  MEMB      188             0.0000000000
     21349       188  POPC      H12R          -26.5091423755      -28.4994289190       -6.6216368618  MEMB      188             0.0000000000
     21350       188  POPC      H12S          -28.1865079387      -28.4506765247       -6.2417512419  MEMB      188             0.0000000000
     21351       188  POPC      C213          -26.9764881090      -27.3046492424       -4.9647331695  MEMB      188             0.0000000000
     21352       188  POPC      H13R          -26.0718573552      -26.6605738137       -4.9983605172  MEMB      188             0.0000000000
     21353       188  POPC      H13S          -26.6667357017      -28.2419857654       -4.4550524325  MEMB      188             0.0000000000
     21354       188  POPC      C214          -28.1666840558      -26.6600504194       -4.2295387730  MEMB      188             0.0000000000
     21355       188  POPC      H14R          -28.9936958801      -27.3735285672       -4.0262625194  MEMB      188             0.0000000000
     21356       188  POPC      H14S          -28.5730448638      -25.8734995537       -4.9007540003  MEMB      188             0.0000000000
     21357       188  POPC      C215          -27.7314811715      -26.0506910760       -2.9080695087  MEMB      188             0.0000000000
     21358       188  POPC      H15R          -27.1256359133      -26.7889762971       -2.3404364626  MEMB      188             0.0000000000
     21359       188  POPC      H15S          -28.5949120027      -25.8290586166       -2.2449790878  MEMB      188             0.0000000000
     21360       188  POPC      C216          -26.7401425638      -24.8576441898       -2.7996994197  MEMB      188             0.0000000000
     21361       188  POPC      H16R          -27.2562199508      -23.9439524707       -3.1646006377  MEMB      188             0.0000000000
     21362       188  POPC      H16S          -25.9049141760      -25.0637987820       -3.5027029560  MEMB      188             0.0000000000
     21363       188  POPC      C217          -26.0996170610      -24.5813037129       -1.4106790930  MEMB      188             0.0000000000
     21364       188  POPC      H17R          -25.5238988974      -25.5038719348       -1.1832204333  MEMB      188             0.0000000000
     21365       188  POPC      H17S          -26.8778392578      -24.3873665108       -0.6418612275  MEMB      188             0.0000000000
     21366       188  POPC      C218          -25.0715528850      -23.4580659777       -1.3314736329  MEMB      188             0.0000000000
     21367       188  POPC      H18R          -24.4642574276      -23.5972119226       -0.4116100119  MEMB      188             0.0000000000
     21368       188  POPC      H18S          -25.4637962156      -22.4187560225       -1.3488270904  MEMB      188             0.0000000000
     21369       188  POPC      H18T          -24.3442997032      -23.4797469334       -2.1710901213  MEMB      188             0.0000000000
     21370       188  POPC      C33           -21.7318874090      -27.0209923521      -13.2742601670  MEMB      188             0.0000000000
     21371       188  POPC      H3X           -20.6285710613      -27.0182013018      -13.4046678479  MEMB      188             0.0000000000
     21372       188  POPC      H3Y           -22.0005017765      -28.0259334614      -12.8840547530  MEMB      188             0.0000000000
     21373       188  POPC      C34           -22.0164169949      -25.8750074439      -12.2593523150  MEMB      188             0.0000000000
     21374       188  POPC      H4X           -21.3060893097      -25.9628929325      -11.4096277254  MEMB      188             0.0000000000
     21375       188  POPC      H4Y           -23.0212008659      -26.1357693303      -11.8634567667  MEMB      188             0.0000000000
     21376       188  POPC      C35           -21.9142908797      -24.3928516967      -12.7242060892  MEMB      188             0.0000000000
     21377       188  POPC      H5X           -22.9643670458      -24.0751452229      -12.8994877545  MEMB      188             0.0000000000
     21378       188  POPC      H5Y           -21.2803632303      -24.4265829635      -13.6359730452  MEMB      188             0.0000000000
     21379       188  POPC      C36           -21.1843381929      -23.5018066270      -11.7141721857  MEMB      188             0.0000000000
     21380       188  POPC      H6X           -20.9388323536      -22.5488426342      -12.2298344428  MEMB      188             0.0000000000
     21381       188  POPC      H6Y           -20.1589747622      -23.8584430187      -11.4780338876  MEMB      188             0.0000000000
     21382       188  POPC      C37           -21.9957264353      -22.9593719097      -10.5308882212  MEMB      188             0.0000000000
     21383       188  POPC      H7X           -23.0528219678      -22.8042701016      -10.8355415873  MEMB      188             0.0000000000
     21384       188  POPC      H7Y           -21.5442515624      -22.0042800831      -10.1869535687  MEMB      188             0.0000000000
     21385       188  POPC      C38           -21.9423490095      -23.9166810251       -9.3192251322  MEMB      188             0.0000000000
     21386       188  POPC      H8X           -22.2371544571      -24.9853214740       -9.3928335131  MEMB      188             0.0000000000
     21387       188  POPC      H8Y           -22.4896601429      -23.5025235345       -8.4455867085  MEMB      188             0.0000000000
     21388       188  POPC      C39           -20.5060582605      -24.1487785531       -8.7329223906  MEMB      188             0.0000000000
     21389       188  POPC      H9X           -20.1801942977      -23.2490362275       -8.1684780846  MEMB      188             0.0000000000
     21390       188  POPC      H9Y           -19.7366271236      -24.4446949508       -9.4777252327  MEMB      188             0.0000000000
     21391       188  POPC      C310          -20.4996098627      -25.2760837779       -7.6633667741  MEMB      188             0.0000000000
     21392       188  POPC      H10X          -20.6557530085      -26.2813053671       -8.1099873506  MEMB      188             0.0000000000
     21393       188  POPC      H10Y          -21.4363729815      -25.1182127490       -7.0872827523  MEMB      188             0.0000000000
     21394       188  POPC      C311          -19.3228447818      -25.2155195117       -6.7210045998  MEMB      188             0.0000000000
     21395       188  POPC      H11X          -19.1873515783      -24.1719100426       -6.3648556444  MEMB      188             0.0000000000
     21396       188  POPC      H11Y          -18.3636216351      -25.5795679794       -7.1472441413  MEMB      188             0.0000000000
     21397       188  POPC      C312          -19.5774075616      -26.2146756949       -5.5387862968  MEMB      188             0.0000000000
     21398       188  POPC      H12X          -18.6434284714      -26.5999800876       -5.0766770147  MEMB      188             0.0000000000
     21399       188  POPC      H12Y          -19.9336771916      -27.1547314699       -6.0117425834  MEMB      188             0.0000000000
     21400       188  POPC      C313          -20.5034348723      -25.6074068349       -4.4637885009  MEMB      188             0.0000000000
     21401       188  POPC      H13X          -21.4111423852      -25.1992950470       -4.9575833372  MEMB      188             0.0000000000
     21402       188  POPC      H13Y          -19.8694098179      -24.8182444692       -4.0060162709  MEMB      188             0.0000000000
     21403       188  POPC      C314          -20.9226746378      -26.6774513262       -3.3994510921  MEMB      188             0.0000000000
     21404       188  POPC      H14X          -19.9468052984      -27.0614156124       -3.0326111369  MEMB      188             0.0000000000
     21405       188  POPC      H14Y          -21.3466124112      -27.5633239726       -3.9189003365  MEMB      188             0.0000000000
     21406       188  POPC      C315          -21.9304351160      -26.1881056102       -2.3604843241  MEMB      188             0.0000000000
     21407       188  POPC      H15X          -22.2285827011      -27.1063807241       -1.8107586511  MEMB      188             0.0000000000
     21408       188  POPC      H15Y          -22.7041892929      -25.6714759983       -2.9677074461  MEMB      188             0.0000000000
     21409       188  POPC      C316          -21.2580728975      -25.1890445532       -1.4731334634  MEMB      188             0.0000000000
     21410       188  POPC      H16X          -20.3158310227      -25.4763084608       -0.9593433879  MEMB      188             0.0000000000
     21411       188  POPC      H16Y          -21.9737955363      -24.7478424199       -0.7469076313  MEMB      188             0.0000000000
     21412       188  POPC      H16Z          -21.1040208066      -24.2319848971       -2.0159273692  MEMB      188             0.0000000000
     21413       189  POPC      N              20.0437711667       26.3930819045      -20.4022662677  MEMB      189             0.0000000000
     21414       189  POPC      C12            19.9720407634       25.6788023755      -19.0941750212  MEMB      189             0.0000000000
     21415       189  POPC      H12A           20.0388556420       24.6049326727      -19.1876613583  MEMB      189             0.0000000000
     21416       189  POPC      H12B           19.0149783127       25.8506301500      -18.6241680451  MEMB      189             0.0000000000
     21417       189  POPC      C13            21.1674567898       25.8392119278      -21.2189751659  MEMB      189             0.0000000000
     21418       189  POPC      H13A           21.0776730629       24.7637282062      -21.1780648885  MEMB      189             0.0000000000
     21419       189  POPC      H13B           20.9831644841       26.0954630442      -22.2518216809  MEMB      189             0.0000000000
     21420       189  POPC      H13C           22.1408937444       26.2197516903      -20.9469274646  MEMB      189             0.0000000000
     21421       189  POPC      C14            18.7458878551       26.0951802897      -21.0995779231  MEMB      189             0.0000000000
     21422       189  POPC      H14A           18.6085893354       25.0547447968      -21.3546138968  MEMB      189             0.0000000000
     21423       189  POPC      H14B           17.9746744894       26.5097115248      -20.4672855451  MEMB      189             0.0000000000
     21424       189  POPC      H14C           18.7606815364       26.6648199761      -22.0170157026  MEMB      189             0.0000000000
     21425       189  POPC      C15            20.2464089530       27.8811666126      -20.2200973871  MEMB      189             0.0000000000
     21426       189  POPC      H15A           19.6321918222       28.3292486267      -19.4530511410  MEMB      189             0.0000000000
     21427       189  POPC      H15B           20.2013071868       28.3896382737      -21.1718444198  MEMB      189             0.0000000000
     21428       189  POPC      H15C           21.2274369054       27.8974152275      -19.7687437422  MEMB      189             0.0000000000
     21429       189  POPC      C11            20.9683669849       26.0827901118      -17.9854465784  MEMB      189             0.0000000000
     21430       189  POPC      H11A           20.9365566734       25.4630258403      -17.0639253274  MEMB      189             0.0000000000
     21431       189  POPC      H11B           20.8950760161       27.1124021729      -17.5745348778  MEMB      189             0.0000000000
     21432       189  POPC      P              23.4767282234       25.0665700977      -17.8582311277  MEMB      189             0.0000000000
     21433       189  POPC      O13            24.7791395520       25.6892175872      -18.2315821400  MEMB      189             0.0000000000
     21434       189  POPC      O14            23.3502006815       23.6444997164      -18.1548023861  MEMB      189             0.0000000000
     21435       189  POPC      O12            22.2456306875       25.8803218689      -18.5217625573  MEMB      189             0.0000000000
     21436       189  POPC      O11            23.1961196211       25.2882389321      -16.2130834446  MEMB      189             0.0000000000
     21437       189  POPC      C1             23.1986288132       26.5342567751      -15.6226150329  MEMB      189             0.0000000000
     21438       189  POPC      HA             22.2062876996       26.6695058444      -15.1416912310  MEMB      189             0.0000000000
     21439       189  POPC      HB             23.3460059803       27.3894015529      -16.3163934883  MEMB      189             0.0000000000
     21440       189  POPC      C2             24.3156130760       26.5709305719      -14.5283055304  MEMB      189             0.0000000000
     21441       189  POPC      HS             25.2218791418       26.9475126536      -15.0490632295  MEMB      189             0.0000000000
     21442       189  POPC      O21            24.3648830273       25.1970541329      -13.9188538659  MEMB      189             0.0000000000
     21443       189  POPC      C21            25.2813840228       24.4501102892      -14.3579930567  MEMB      189             0.0000000000
     21444       189  POPC      O22            26.1632605605       24.7160093128      -15.1744591741  MEMB      189             0.0000000000
     21445       189  POPC      C22            25.2895537855       23.1724050468      -13.4767006959  MEMB      189             0.0000000000
     21446       189  POPC      H2R            25.9191519014       23.3735007605      -12.5836793498  MEMB      189             0.0000000000
     21447       189  POPC      H2S            25.6273762482       22.4581733190      -14.2577701668  MEMB      189             0.0000000000
     21448       189  POPC      C3             23.9903483258       27.6570473765      -13.4189341195  MEMB      189             0.0000000000
     21449       189  POPC      HX             22.9113508038       27.6868918663      -13.1558851919  MEMB      189             0.0000000000
     21450       189  POPC      HY             24.3148018216       28.6077961509      -13.8934102163  MEMB      189             0.0000000000
     21451       189  POPC      O31            24.8339711460       27.4815554759      -12.2683259544  MEMB      189             0.0000000000
     21452       189  POPC      C31            24.2816820429       26.7684466626      -11.3063519190  MEMB      189             0.0000000000
     21453       189  POPC      O32            23.1855346114       26.2177695747      -11.2905871346  MEMB      189             0.0000000000
     21454       189  POPC      C32            25.3098520389       26.7311095158      -10.1810672420  MEMB      189             0.0000000000
     21455       189  POPC      H2X            25.0379861479       27.5602842820       -9.4934051065  MEMB      189             0.0000000000
     21456       189  POPC      H2Y            26.3521858043       26.8373643304      -10.5506226599  MEMB      189             0.0000000000
     21457       189  POPC      C23            23.8934739029       22.7847128999      -12.9656763568  MEMB      189             0.0000000000
     21458       189  POPC      H3R            23.1473133281       22.8267452199      -13.7877463549  MEMB      189             0.0000000000
     21459       189  POPC      H3S            23.5543585347       23.6251952740      -12.3230949306  MEMB      189             0.0000000000
     21460       189  POPC      C24            23.6766971073       21.4379364066      -12.2424381274  MEMB      189             0.0000000000
     21461       189  POPC      H4R            24.2997067994       21.5461631590      -11.3289460560  MEMB      189             0.0000000000
     21462       189  POPC      H4S            24.1136415339       20.6540718362      -12.8973859277  MEMB      189             0.0000000000
     21463       189  POPC      C25            22.2794912580       21.0399578105      -11.8377466547  MEMB      189             0.0000000000
     21464       189  POPC      H5R            22.0920508958       19.9829835487      -11.5514030958  MEMB      189             0.0000000000
     21465       189  POPC      H5S            21.6081825080       21.2576822451      -12.6958036604  MEMB      189             0.0000000000
     21466       189  POPC      C26            21.7111791643       22.0585368426      -10.7784889607  MEMB      189             0.0000000000
     21467       189  POPC      H6R            21.7611174872       23.1152477878      -11.1178834207  MEMB      189             0.0000000000
     21468       189  POPC      H6S            22.1858126440       21.9947983283       -9.7760012110  MEMB      189             0.0000000000
     21469       189  POPC      C27            20.1906192854       21.8523420450      -10.5241308059  MEMB      189             0.0000000000
     21470       189  POPC      H7R            20.1319025340       20.7680146713      -10.2893811920  MEMB      189             0.0000000000
     21471       189  POPC      H7S            19.7754846215       21.9589640199      -11.5491262973  MEMB      189             0.0000000000
     21472       189  POPC      C28            19.3426986677       22.7428100052       -9.5160301257  MEMB      189             0.0000000000
     21473       189  POPC      H8R            18.3117692366       22.3518417782       -9.6525934316  MEMB      189             0.0000000000
     21474       189  POPC      H8S            19.2851365301       23.7893773715       -9.8844107013  MEMB      189             0.0000000000
     21475       189  POPC      C29            19.9088165169       22.6536954679       -8.1431398630  MEMB      189             0.0000000000
     21476       189  POPC      H91            19.6023175846       21.8033033770       -7.5163292216  MEMB      189             0.0000000000
     21477       189  POPC      C210           20.6723155850       23.5357225126       -7.5707290357  MEMB      189             0.0000000000
     21478       189  POPC      H101           21.2649812127       23.2418054722       -6.6918885974  MEMB      189             0.0000000000
     21479       189  POPC      C211           21.2243835185       24.8186168052       -8.1119406201  MEMB      189             0.0000000000
     21480       189  POPC      H11R           21.1396765857       24.9273413632       -9.2143577877  MEMB      189             0.0000000000
     21481       189  POPC      H11S           22.3257088823       24.9016064500       -7.9914575100  MEMB      189             0.0000000000
     21482       189  POPC      C212           20.5528839753       26.1580099173       -7.5059131307  MEMB      189             0.0000000000
     21483       189  POPC      H12R           19.4828288760       26.1275010052       -7.8031869171  MEMB      189             0.0000000000
     21484       189  POPC      H12S           21.0483422737       26.8953566760       -8.1731169961  MEMB      189             0.0000000000
     21485       189  POPC      C213           20.8133412766       26.3927649307       -6.0528168161  MEMB      189             0.0000000000
     21486       189  POPC      H13R           21.7994997559       26.8431587154       -5.8100045617  MEMB      189             0.0000000000
     21487       189  POPC      H13S           20.9350319145       25.3732952623       -5.6283248106  MEMB      189             0.0000000000
     21488       189  POPC      C214           19.6118430658       27.1497563966       -5.3740742788  MEMB      189             0.0000000000
     21489       189  POPC      H14R           18.6978936983       26.7939773102       -5.8960312854  MEMB      189             0.0000000000
     21490       189  POPC      H14S           19.6868719479       28.2581378961       -5.3605827694  MEMB      189             0.0000000000
     21491       189  POPC      C215           19.3907147463       26.6797448696       -3.9487704948  MEMB      189             0.0000000000
     21492       189  POPC      H15R           19.2060835992       25.6029195974       -3.7470781468  MEMB      189             0.0000000000
     21493       189  POPC      H15S           18.5709040082       27.3813740922       -3.6842940629  MEMB      189             0.0000000000
     21494       189  POPC      C216           20.5636813560       26.9690121669       -2.9020916228  MEMB      189             0.0000000000
     21495       189  POPC      H16R           21.2228409818       27.7461293241       -3.3447186140  MEMB      189             0.0000000000
     21496       189  POPC      H16S           21.1458661891       26.0250411859       -2.8365128778  MEMB      189             0.0000000000
     21497       189  POPC      C217           20.0945286267       27.3816130154       -1.5384731099  MEMB      189             0.0000000000
     21498       189  POPC      H17R           19.6161382939       28.3815926276       -1.6126651415  MEMB      189             0.0000000000
     21499       189  POPC      H17S           21.0758307684       27.3201865706       -1.0211789148  MEMB      189             0.0000000000
     21500       189  POPC      C218           19.0149045684       26.5274842146       -0.8639865670  MEMB      189             0.0000000000
     21501       189  POPC      H18R           18.0479562985       26.6352922741       -1.4003729760  MEMB      189             0.0000000000
     21502       189  POPC      H18S           18.7909279861       26.6825332077        0.2130994406  MEMB      189             0.0000000000
     21503       189  POPC      H18T           19.3222667590       25.4598792133       -0.8556732248  MEMB      189             0.0000000000
     21504       189  POPC      C33            25.2243900427       25.4890613206       -9.3062358823  MEMB      189             0.0000000000
     21505       189  POPC      H3X            25.7603894859       24.6476517126       -9.7951682576  MEMB      189             0.0000000000
     21506       189  POPC      H3Y            24.1747190570       25.1262873082       -9.3363518694  MEMB      189             0.0000000000
     21507       189  POPC      C34            25.6417663938       25.8109264190       -7.8744470445  MEMB      189             0.0000000000
     21508       189  POPC      H4X            24.9052392219       26.4652020140       -7.3608603270  MEMB      189             0.0000000000
     21509       189  POPC      H4Y            26.5948020994       26.3575016470       -8.0396734142  MEMB      189             0.0000000000
     21510       189  POPC      C35            25.9274930675       24.5597733100       -6.9882132890  MEMB      189             0.0000000000
     21511       189  POPC      H5X            26.4896483576       24.9848136882       -6.1293522809  MEMB      189             0.0000000000
     21512       189  POPC      H5Y            26.5007748215       23.6963221774       -7.3883639323  MEMB      189             0.0000000000
     21513       189  POPC      C36            24.6560824859       24.0225885434       -6.2433063435  MEMB      189             0.0000000000
     21514       189  POPC      H6X            24.0442736984       23.4823362408       -6.9970563878  MEMB      189             0.0000000000
     21515       189  POPC      H6Y            24.0541639414       24.8941081063       -5.9079424280  MEMB      189             0.0000000000
     21516       189  POPC      C37            25.0195129980       23.1998700520       -5.0689864223  MEMB      189             0.0000000000
     21517       189  POPC      H7X            25.8145633810       23.7660893777       -4.5383149929  MEMB      189             0.0000000000
     21518       189  POPC      H7Y            25.3590484469       22.1588703922       -5.2570185943  MEMB      189             0.0000000000
     21519       189  POPC      C38            23.7449873289       23.2016295261       -4.1722724286  MEMB      189             0.0000000000
     21520       189  POPC      H8X            22.8964384910       22.8494614547       -4.7969827551  MEMB      189             0.0000000000
     21521       189  POPC      H8Y            23.4654462265       24.2136148415       -3.8088667109  MEMB      189             0.0000000000
     21522       189  POPC      C39            23.7895028528       22.3489870380       -2.9254400863  MEMB      189             0.0000000000
     21523       189  POPC      H9X            23.7957513100       21.2759681996       -3.2133855086  MEMB      189             0.0000000000
     21524       189  POPC      H9Y            22.8541896928       22.5274608986       -2.3530258946  MEMB      189             0.0000000000
     21525       189  POPC      C310           25.0250639501       22.4815865304       -2.0210336445  MEMB      189             0.0000000000
     21526       189  POPC      H10X           25.9391314841       22.1897932794       -2.5810865481  MEMB      189             0.0000000000
     21527       189  POPC      H10Y           24.9737452856       21.7770476422       -1.1635301970  MEMB      189             0.0000000000
     21528       189  POPC      C311           25.4151253188       23.8663301452       -1.4197218515  MEMB      189             0.0000000000
     21529       189  POPC      H11X           25.6831783981       24.5128449884       -2.2825590895  MEMB      189             0.0000000000
     21530       189  POPC      H11Y           26.2787492479       23.7757368206       -0.7267091162  MEMB      189             0.0000000000
     21531       189  POPC      C312           24.2409361885       24.5004307578       -0.6633021637  MEMB      189             0.0000000000
     21532       189  POPC      H12X           24.0369971063       23.8626513310        0.2232469864  MEMB      189             0.0000000000
     21533       189  POPC      H12Y           23.3517128888       24.5256554551       -1.3288585063  MEMB      189             0.0000000000
     21534       189  POPC      C313           24.6145759385       25.9911811789       -0.1987371739  MEMB      189             0.0000000000
     21535       189  POPC      H13X           25.6953905243       25.9566480969        0.0561502465  MEMB      189             0.0000000000
     21536       189  POPC      H13Y           23.9545100657       26.3828569458        0.6045207811  MEMB      189             0.0000000000
     21537       189  POPC      C314           24.4104229550       27.0341477962       -1.3214020330  MEMB      189             0.0000000000
     21538       189  POPC      H14X           23.3638421103       27.0810027799       -1.6912598390  MEMB      189             0.0000000000
     21539       189  POPC      H14Y           25.0117584046       26.8610037463       -2.2394096201  MEMB      189             0.0000000000
     21540       189  POPC      C315           24.8601949167       28.4629550616       -0.8817211426  MEMB      189             0.0000000000
     21541       189  POPC      H15X           25.9534598299       28.4183298749       -1.0743388719  MEMB      189             0.0000000000
     21542       189  POPC      H15Y           24.4974727512       28.6298229120        0.1550581820  MEMB      189             0.0000000000
     21543       189  POPC      C316           24.3777956749       29.4848417816       -1.9186910539  MEMB      189             0.0000000000
     21544       189  POPC      H16X           23.2867452318       29.3418341852       -2.0719191353  MEMB      189             0.0000000000
     21545       189  POPC      H16Y           24.8799162658       29.2615896875       -2.8842764314  MEMB      189             0.0000000000
     21546       189  POPC      H16Z           24.5574737960       30.5700913284       -1.7629023842  MEMB      189             0.0000000000
     21547       190  POPC      N               2.8083535162      -39.4323212092      -20.5428529188  MEMB      190             0.0000000000
     21548       190  POPC      C12             3.1086976919      -39.4999626319      -19.0498121216  MEMB      190             0.0000000000
     21549       190  POPC      H12A            2.5219483023      -40.3537932888      -18.7446919696  MEMB      190             0.0000000000
     21550       190  POPC      H12B            2.7014713210      -38.6042674245      -18.6045069211  MEMB      190             0.0000000000
     21551       190  POPC      C13             3.4578183622      -38.1491969343      -21.0479263172  MEMB      190             0.0000000000
     21552       190  POPC      H13A            2.9481478982      -37.8609016824      -21.9554072076  MEMB      190             0.0000000000
     21553       190  POPC      H13B            3.2748510587      -37.4648379279      -20.2327110876  MEMB      190             0.0000000000
     21554       190  POPC      H13C            4.5195497824      -38.3316706746      -21.1242792425  MEMB      190             0.0000000000
     21555       190  POPC      C14             3.3762458610      -40.5128434118      -21.4864182908  MEMB      190             0.0000000000
     21556       190  POPC      H14A            4.4284203690      -40.6841451731      -21.3132580128  MEMB      190             0.0000000000
     21557       190  POPC      H14B            2.7964051881      -41.4032560039      -21.2931555221  MEMB      190             0.0000000000
     21558       190  POPC      H14C            3.2367151517      -40.1798360635      -22.5042773416  MEMB      190             0.0000000000
     21559       190  POPC      C15             1.2824611601      -39.2742716462      -20.7898203615  MEMB      190             0.0000000000
     21560       190  POPC      H15A            0.9182151764      -38.5957456844      -20.0326364929  MEMB      190             0.0000000000
     21561       190  POPC      H15B            0.7770295721      -40.1987417656      -20.5525574396  MEMB      190             0.0000000000
     21562       190  POPC      H15C            1.1382477741      -38.9318517017      -21.8038968505  MEMB      190             0.0000000000
     21563       190  POPC      C11             4.5498191646      -39.5415862620      -18.5253634438  MEMB      190             0.0000000000
     21564       190  POPC      H11A            5.0551819061      -40.3244481555      -19.1303896951  MEMB      190             0.0000000000
     21565       190  POPC      H11B            4.5477322635      -40.0027498011      -17.5145990032  MEMB      190             0.0000000000
     21566       190  POPC      P               5.1261443234      -37.2953250780      -17.5069752980  MEMB      190             0.0000000000
     21567       190  POPC      O13             3.8215570705      -36.6001626609      -17.7091710208  MEMB      190             0.0000000000
     21568       190  POPC      O14             6.2478972592      -36.3920852096      -17.5118235498  MEMB      190             0.0000000000
     21569       190  POPC      O12             5.3036347393      -38.3713068412      -18.6627750466  MEMB      190             0.0000000000
     21570       190  POPC      O11             5.1868690912      -38.0950135175      -16.1670616307  MEMB      190             0.0000000000
     21571       190  POPC      C1              6.4082696039      -38.7889429526      -16.0552763461  MEMB      190             0.0000000000
     21572       190  POPC      HA              7.0790124734      -38.0556587708      -15.5585678200  MEMB      190             0.0000000000
     21573       190  POPC      HB              6.8266695340      -39.1767227817      -17.0086330891  MEMB      190             0.0000000000
     21574       190  POPC      C2              6.3110025469      -40.1004020168      -15.2762296514  MEMB      190             0.0000000000
     21575       190  POPC      HS              5.6562853901      -40.8579098698      -15.7577361862  MEMB      190             0.0000000000
     21576       190  POPC      O21             5.7166588986      -39.8610264766      -13.9971194563  MEMB      190             0.0000000000
     21577       190  POPC      C21             5.3831749069      -41.0476486346      -13.3617423969  MEMB      190             0.0000000000
     21578       190  POPC      O22             5.5316719299      -42.1494250382      -13.8138320557  MEMB      190             0.0000000000
     21579       190  POPC      C22             4.7877119176      -40.6898892100      -11.9791322376  MEMB      190             0.0000000000
     21580       190  POPC      H2R             3.7432289549      -40.4317277226      -12.2561321563  MEMB      190             0.0000000000
     21581       190  POPC      H2S             5.3379139199      -39.8112414571      -11.5796617863  MEMB      190             0.0000000000
     21582       190  POPC      C3              7.6962212711      -40.7298153538      -15.1554365431  MEMB      190             0.0000000000
     21583       190  POPC      HX              8.0454163712      -41.1218228553      -16.1345758083  MEMB      190             0.0000000000
     21584       190  POPC      HY              7.9228966842      -41.6144993481      -14.5227646899  MEMB      190             0.0000000000
     21585       190  POPC      O31             8.7436808870      -39.7945464296      -14.8443637466  MEMB      190             0.0000000000
     21586       190  POPC      C31             9.1435002900      -39.6727871766      -13.5339070796  MEMB      190             0.0000000000
     21587       190  POPC      O32             8.9591939725      -40.4988372643      -12.6743316236  MEMB      190             0.0000000000
     21588       190  POPC      C32            10.1353677108      -38.4259815460      -13.5130724548  MEMB      190             0.0000000000
     21589       190  POPC      H2X            10.8040380918      -38.2851053764      -14.3890598154  MEMB      190             0.0000000000
     21590       190  POPC      H2Y            10.8588202688      -38.6250163907      -12.6937293362  MEMB      190             0.0000000000
     21591       190  POPC      C23             4.9431373071      -41.9166254886      -10.9725616349  MEMB      190             0.0000000000
     21592       190  POPC      H3R             4.5913612298      -42.8618742311      -11.4384799107  MEMB      190             0.0000000000
     21593       190  POPC      H3S             4.2015416451      -41.7526542501      -10.1617157832  MEMB      190             0.0000000000
     21594       190  POPC      C24             6.2922960394      -42.1402286660      -10.2686090675  MEMB      190             0.0000000000
     21595       190  POPC      H4R             6.9973684707      -42.6250142566      -10.9772525080  MEMB      190             0.0000000000
     21596       190  POPC      H4S             6.1800107675      -42.9088923022       -9.4743359562  MEMB      190             0.0000000000
     21597       190  POPC      C25             6.9235933813      -40.9409417640       -9.6570508934  MEMB      190             0.0000000000
     21598       190  POPC      H5R             6.2148560871      -40.4604156753       -8.9491616505  MEMB      190             0.0000000000
     21599       190  POPC      H5S             7.1331249457      -40.1741082231      -10.4331844733  MEMB      190             0.0000000000
     21600       190  POPC      C26             8.2052356170      -41.2245883837       -8.8564820585  MEMB      190             0.0000000000
     21601       190  POPC      H6R             8.9688053424      -41.5264598404       -9.6049174816  MEMB      190             0.0000000000
     21602       190  POPC      H6S             8.0797675593      -42.1335829892       -8.2301368676  MEMB      190             0.0000000000
     21603       190  POPC      C27             8.6840426280      -39.9637278203       -8.0321712107  MEMB      190             0.0000000000
     21604       190  POPC      H7R             8.7081501723      -39.1016052230       -8.7325169319  MEMB      190             0.0000000000
     21605       190  POPC      H7S             9.6982234689      -40.1485319853       -7.6179184930  MEMB      190             0.0000000000
     21606       190  POPC      C28             7.7319415253      -39.3246994875       -6.9354245627  MEMB      190             0.0000000000
     21607       190  POPC      H8R             6.7120143852      -39.1478804522       -7.3389162242  MEMB      190             0.0000000000
     21608       190  POPC      H8S             8.1511570639      -38.3270001766       -6.6840783525  MEMB      190             0.0000000000
     21609       190  POPC      C29             7.6287078935      -40.1663687447       -5.6870170386  MEMB      190             0.0000000000
     21610       190  POPC      H91             7.8763374009      -41.2256011162       -5.8504386268  MEMB      190             0.0000000000
     21611       190  POPC      C210            7.3514903379      -39.7553596883       -4.4823684015  MEMB      190             0.0000000000
     21612       190  POPC      H101            7.4493263299      -40.5889298029       -3.7713214190  MEMB      190             0.0000000000
     21613       190  POPC      C211            7.0933458966      -38.2856343899       -4.1061345967  MEMB      190             0.0000000000
     21614       190  POPC      H11R            6.1975301622      -37.9289054543       -4.6580221509  MEMB      190             0.0000000000
     21615       190  POPC      H11S            7.9410420763      -37.6054355847       -4.3364860564  MEMB      190             0.0000000000
     21616       190  POPC      C212            6.8037104375      -38.1395240449       -2.6108698744  MEMB      190             0.0000000000
     21617       190  POPC      H12R            7.7282970516      -38.2913822373       -2.0138781698  MEMB      190             0.0000000000
     21618       190  POPC      H12S            6.1813988105      -39.0400588697       -2.4209065735  MEMB      190             0.0000000000
     21619       190  POPC      C213            6.2270855674      -36.7936167039       -2.2047961967  MEMB      190             0.0000000000
     21620       190  POPC      H13R            5.3829478962      -36.6211123821       -2.9062188293  MEMB      190             0.0000000000
     21621       190  POPC      H13S            6.9331662133      -35.9363819726       -2.2351281841  MEMB      190             0.0000000000
     21622       190  POPC      C214            5.5402833966      -36.9135899913       -0.8314367250  MEMB      190             0.0000000000
     21623       190  POPC      H14R            6.3822777612      -37.0968262582       -0.1301594590  MEMB      190             0.0000000000
     21624       190  POPC      H14S            4.8293388222      -37.7658919930       -0.7818360434  MEMB      190             0.0000000000
     21625       190  POPC      C215            4.8619659156      -35.5696466370       -0.4978758413  MEMB      190             0.0000000000
     21626       190  POPC      H15R            3.8475294877      -35.5227579404       -0.9484777393  MEMB      190             0.0000000000
     21627       190  POPC      H15S            5.3781459941      -34.6816439295       -0.9213494750  MEMB      190             0.0000000000
     21628       190  POPC      C216            4.7230698121      -35.2895965734        1.0470665053  MEMB      190             0.0000000000
     21629       190  POPC      H16R            5.6773150119      -35.6336377228        1.5002476701  MEMB      190             0.0000000000
     21630       190  POPC      H16S            3.8789166429      -35.8631339163        1.4861358482  MEMB      190             0.0000000000
     21631       190  POPC      C217            4.7149235884      -33.7814506809        1.4094920734  MEMB      190             0.0000000000
     21632       190  POPC      H17R            3.7516473395      -33.2727040010        1.1913259783  MEMB      190             0.0000000000
     21633       190  POPC      H17S            5.5553605710      -33.2662515597        0.8970900907  MEMB      190             0.0000000000
     21634       190  POPC      C218            5.1341057002      -33.6862580081        2.8675610450  MEMB      190             0.0000000000
     21635       190  POPC      H18R            6.0530328196      -34.2272978094        3.1792814669  MEMB      190             0.0000000000
     21636       190  POPC      H18S            4.2846161002      -34.1284668276        3.4307126235  MEMB      190             0.0000000000
     21637       190  POPC      H18T            5.2983031247      -32.6272150097        3.1604566530  MEMB      190             0.0000000000
     21638       190  POPC      C33             9.3166727033      -37.1647386058      -13.1055268493  MEMB      190             0.0000000000
     21639       190  POPC      H3X             8.5488554239      -36.9807610324      -13.8871469083  MEMB      190             0.0000000000
     21640       190  POPC      H3Y            10.0680374476      -36.3490462761      -13.1719932115  MEMB      190             0.0000000000
     21641       190  POPC      C34             8.8063833927      -37.2057508849      -11.7029740528  MEMB      190             0.0000000000
     21642       190  POPC      H4X             9.7247081537      -37.3854421749      -11.1040486420  MEMB      190             0.0000000000
     21643       190  POPC      H4Y             8.0991440112      -38.0564849940      -11.6010683751  MEMB      190             0.0000000000
     21644       190  POPC      C35             8.0399731706      -35.9742149197      -11.1619233355  MEMB      190             0.0000000000
     21645       190  POPC      H5X             7.1923235518      -35.7484788316      -11.8437252757  MEMB      190             0.0000000000
     21646       190  POPC      H5Y             8.7623229234      -35.1466349019      -11.3281862594  MEMB      190             0.0000000000
     21647       190  POPC      C36             7.5898712004      -36.0291921283       -9.6337869278  MEMB      190             0.0000000000
     21648       190  POPC      H6X             8.4265535952      -36.1545065766       -8.9136621982  MEMB      190             0.0000000000
     21649       190  POPC      H6Y             6.8995229535      -36.8943320963       -9.5374906479  MEMB      190             0.0000000000
     21650       190  POPC      C37             6.7347451697      -34.8204730789       -9.1452270614  MEMB      190             0.0000000000
     21651       190  POPC      H7X             6.0187486792      -34.5439424283       -9.9484708518  MEMB      190             0.0000000000
     21652       190  POPC      H7Y             7.4508435869      -34.0642060567       -8.7584656405  MEMB      190             0.0000000000
     21653       190  POPC      C38             5.9155961020      -35.1396463304       -7.8263192094  MEMB      190             0.0000000000
     21654       190  POPC      H8X             5.4852996083      -34.2067664378       -7.4033513876  MEMB      190             0.0000000000
     21655       190  POPC      H8Y             6.6426983953      -35.4835029767       -7.0598946656  MEMB      190             0.0000000000
     21656       190  POPC      C39             4.8780592427      -36.2215314978       -7.9976133233  MEMB      190             0.0000000000
     21657       190  POPC      H9X             5.4362201631      -37.1609131684       -8.1984607848  MEMB      190             0.0000000000
     21658       190  POPC      H9Y             4.2158409401      -35.9771055770       -8.8555434417  MEMB      190             0.0000000000
     21659       190  POPC      C310            4.1880350952      -36.5040899481       -6.6367217857  MEMB      190             0.0000000000
     21660       190  POPC      H10X            3.3924513972      -35.7332385787       -6.5521299454  MEMB      190             0.0000000000
     21661       190  POPC      H10Y            4.8659515481      -36.5380291227       -5.7571779398  MEMB      190             0.0000000000
     21662       190  POPC      C311            3.4311194718      -37.8114985154       -6.6677820886  MEMB      190             0.0000000000
     21663       190  POPC      H11X            4.0986504683      -38.6906305672       -6.7936800677  MEMB      190             0.0000000000
     21664       190  POPC      H11Y            2.7526254558      -37.8294987271       -7.5473511733  MEMB      190             0.0000000000
     21665       190  POPC      C312            2.5534365699      -38.0734853535       -5.3857197903  MEMB      190             0.0000000000
     21666       190  POPC      H12X            1.5501366234      -37.6139441757       -5.5142967016  MEMB      190             0.0000000000
     21667       190  POPC      H12Y            2.9222530222      -37.6320856797       -4.4352136465  MEMB      190             0.0000000000
     21668       190  POPC      C313            2.3369835429      -39.5313401609       -4.9933768932  MEMB      190             0.0000000000
     21669       190  POPC      H13X            2.1183600042      -40.0494507923       -5.9515451450  MEMB      190             0.0000000000
     21670       190  POPC      H13Y            1.4479118189      -39.6608487511       -4.3398479328  MEMB      190             0.0000000000
     21671       190  POPC      C314            3.5914940458      -40.2480865198       -4.3641848669  MEMB      190             0.0000000000
     21672       190  POPC      H14X            4.5330345487      -39.8860622673       -4.8297602867  MEMB      190             0.0000000000
     21673       190  POPC      H14Y            3.4970279788      -41.3150328606       -4.6591813315  MEMB      190             0.0000000000
     21674       190  POPC      C315            3.7995347111      -40.2505711358       -2.8216836996  MEMB      190             0.0000000000
     21675       190  POPC      H15X            3.8344895285      -39.1754846893       -2.5436765174  MEMB      190             0.0000000000
     21676       190  POPC      H15Y            4.7724003740      -40.7403935935       -2.6027605434  MEMB      190             0.0000000000
     21677       190  POPC      C316            2.6648115747      -40.8593485652       -1.9790532592  MEMB      190             0.0000000000
     21678       190  POPC      H16X            2.5800995799      -41.9441247779       -2.2035650720  MEMB      190             0.0000000000
     21679       190  POPC      H16Y            1.6952965084      -40.4688264239       -2.3556874608  MEMB      190             0.0000000000
     21680       190  POPC      H16Z            2.7929970439      -40.6798978419       -0.8901602417  MEMB      190             0.0000000000
     21681       191  POPC      N             -17.2516723963       29.9528150538      -19.6850195298  MEMB      191             0.0000000000
     21682       191  POPC      C12           -16.3254492322       31.0051083318      -20.2817986299  MEMB      191             0.0000000000
     21683       191  POPC      H12A          -16.3194512451       30.8812774231      -21.3546590947  MEMB      191             0.0000000000
     21684       191  POPC      H12B          -15.3268497881       30.7308450268      -19.9752393120  MEMB      191             0.0000000000
     21685       191  POPC      C13           -16.8689838239       29.7130744163      -18.2108742323  MEMB      191             0.0000000000
     21686       191  POPC      H13A          -17.5232121063       28.9945840887      -17.7395390440  MEMB      191             0.0000000000
     21687       191  POPC      H13B          -15.8461628981       29.3710857472      -18.1535947465  MEMB      191             0.0000000000
     21688       191  POPC      H13C          -16.8784894716       30.6523756805      -17.6779361796  MEMB      191             0.0000000000
     21689       191  POPC      C14           -18.6381375525       30.4779933526      -19.8144418452  MEMB      191             0.0000000000
     21690       191  POPC      H14A          -18.8369353618       31.2097584353      -19.0454169589  MEMB      191             0.0000000000
     21691       191  POPC      H14B          -18.6053304195       30.9400134532      -20.7900755271  MEMB      191             0.0000000000
     21692       191  POPC      H14C          -19.3022809138       29.6384805012      -19.6711531705  MEMB      191             0.0000000000
     21693       191  POPC      C15           -16.9856861903       28.6400378015      -20.3662139017  MEMB      191             0.0000000000
     21694       191  POPC      H15A          -17.4037675497       28.4058466168      -21.3340787302  MEMB      191             0.0000000000
     21695       191  POPC      H15B          -17.4878332328       27.8832873772      -19.7817679669  MEMB      191             0.0000000000
     21696       191  POPC      H15C          -15.9195943609       28.4693309494      -20.3396190443  MEMB      191             0.0000000000
     21697       191  POPC      C11           -16.6404246243       32.4924318332      -20.0215877627  MEMB      191             0.0000000000
     21698       191  POPC      H11A          -17.5924249528       32.8218712939      -20.4900811355  MEMB      191             0.0000000000
     21699       191  POPC      H11B          -15.7470831330       33.0240481584      -20.4135648572  MEMB      191             0.0000000000
     21700       191  POPC      P             -17.0617772829       34.1494041424      -18.1915683598  MEMB      191             0.0000000000
     21701       191  POPC      O13           -18.0724207622       34.6918596152      -19.1209232779  MEMB      191             0.0000000000
     21702       191  POPC      O14           -15.8161995881       34.9415923019      -17.9571738106  MEMB      191             0.0000000000
     21703       191  POPC      O12           -16.7679414948       32.6983200152      -18.6235750138  MEMB      191             0.0000000000
     21704       191  POPC      O11           -17.7972350533       34.0620650406      -16.7268236384  MEMB      191             0.0000000000
     21705       191  POPC      C1            -18.8933320173       33.0636667054      -16.6583876310  MEMB      191             0.0000000000
     21706       191  POPC      HA            -18.4409616924       32.1260990927      -16.2702522052  MEMB      191             0.0000000000
     21707       191  POPC      HB            -19.2972871740       32.9552868008      -17.6876568117  MEMB      191             0.0000000000
     21708       191  POPC      C2            -19.8936172641       33.5327557307      -15.6265352433  MEMB      191             0.0000000000
     21709       191  POPC      HS            -20.2990737276       34.5018012293      -15.9883048883  MEMB      191             0.0000000000
     21710       191  POPC      O21           -19.0969020627       33.7539799947      -14.4176452494  MEMB      191             0.0000000000
     21711       191  POPC      C21           -19.4927184011       34.5075533821      -13.5335782169  MEMB      191             0.0000000000
     21712       191  POPC      O22           -20.5624329784       35.0647062486      -13.3993874116  MEMB      191             0.0000000000
     21713       191  POPC      C22           -18.3548816174       34.6370406335      -12.5025552110  MEMB      191             0.0000000000
     21714       191  POPC      H2R           -17.4125228846       34.9130750513      -13.0222534941  MEMB      191             0.0000000000
     21715       191  POPC      H2S           -18.1199814667       33.7049182801      -11.9455177091  MEMB      191             0.0000000000
     21716       191  POPC      C3            -21.1051278466       32.5644372528      -15.4186473525  MEMB      191             0.0000000000
     21717       191  POPC      HX            -21.7016190035       32.4236874933      -16.3453128388  MEMB      191             0.0000000000
     21718       191  POPC      HY            -21.8355606058       33.0982244398      -14.7737750635  MEMB      191             0.0000000000
     21719       191  POPC      O31           -20.6605043138       31.2892862447      -14.9166642204  MEMB      191             0.0000000000
     21720       191  POPC      C31           -20.9643535343       30.9317131643      -13.7049472137  MEMB      191             0.0000000000
     21721       191  POPC      O32           -21.7517714717       31.4432101984      -12.8966496168  MEMB      191             0.0000000000
     21722       191  POPC      C32           -20.2777473350       29.6593545746      -13.3004193085  MEMB      191             0.0000000000
     21723       191  POPC      H2X           -19.4830450124       29.2858059120      -13.9810299054  MEMB      191             0.0000000000
     21724       191  POPC      H2Y           -21.0283872649       28.8465828867      -13.1991143639  MEMB      191             0.0000000000
     21725       191  POPC      C23           -18.8893223619       35.6333428779      -11.4270548457  MEMB      191             0.0000000000
     21726       191  POPC      H3R           -19.7682721057       35.1822411726      -10.9188461817  MEMB      191             0.0000000000
     21727       191  POPC      H3S           -19.3749765581       36.4737946020      -11.9675192731  MEMB      191             0.0000000000
     21728       191  POPC      C24           -17.8032990742       36.1560445218      -10.5059967576  MEMB      191             0.0000000000
     21729       191  POPC      H4R           -17.0327607135       36.7496912784      -11.0428163965  MEMB      191             0.0000000000
     21730       191  POPC      H4S           -17.2913329574       35.2612081954      -10.0918966305  MEMB      191             0.0000000000
     21731       191  POPC      C25           -18.2247489646       36.9954914838       -9.3201455052  MEMB      191             0.0000000000
     21732       191  POPC      H5R           -18.6079530027       37.9322882276       -9.7782811344  MEMB      191             0.0000000000
     21733       191  POPC      H5S           -17.3268860196       37.0412029986       -8.6674027805  MEMB      191             0.0000000000
     21734       191  POPC      C26           -19.3438771424       36.3772937365       -8.4431444502  MEMB      191             0.0000000000
     21735       191  POPC      H6R           -20.3004213352       36.2725018251       -8.9984483629  MEMB      191             0.0000000000
     21736       191  POPC      H6S           -19.6539733956       36.9935636421       -7.5722982267  MEMB      191             0.0000000000
     21737       191  POPC      C27           -18.9974171809       35.0494273160       -7.7378153929  MEMB      191             0.0000000000
     21738       191  POPC      H7R           -17.9278279236       35.1293644095       -7.4481433991  MEMB      191             0.0000000000
     21739       191  POPC      H7S           -19.0034931041       34.2452074295       -8.5043099310  MEMB      191             0.0000000000
     21740       191  POPC      C28           -19.9179903958       34.7883406891       -6.5892253156  MEMB      191             0.0000000000
     21741       191  POPC      H8R           -20.9942987089       34.7292105882       -6.8582693616  MEMB      191             0.0000000000
     21742       191  POPC      H8S           -19.9188774737       35.6696609699       -5.9127674741  MEMB      191             0.0000000000
     21743       191  POPC      C29           -19.3338453774       33.5169094555       -5.8560181710  MEMB      191             0.0000000000
     21744       191  POPC      H91           -18.5859773134       33.6839944526       -5.0668567944  MEMB      191             0.0000000000
     21745       191  POPC      C210          -19.6688188865       32.1938678000       -6.0762797041  MEMB      191             0.0000000000
     21746       191  POPC      H101          -19.2210122163       31.4155729379       -5.4408851503  MEMB      191             0.0000000000
     21747       191  POPC      C211          -20.6101850810       31.6167726587       -7.0192448715  MEMB      191             0.0000000000
     21748       191  POPC      H11R          -20.3980081382       30.5681527471       -7.3187408697  MEMB      191             0.0000000000
     21749       191  POPC      H11S          -20.7314155002       32.2766749854       -7.9047682325  MEMB      191             0.0000000000
     21750       191  POPC      C212          -22.0545931305       31.7029081547       -6.5097805246  MEMB      191             0.0000000000
     21751       191  POPC      H12R          -22.8836622425       31.4984208961       -7.2205201536  MEMB      191             0.0000000000
     21752       191  POPC      H12S          -22.2344233825       32.7609792868       -6.2226084266  MEMB      191             0.0000000000
     21753       191  POPC      C213          -22.2052212842       30.7847362757       -5.2112981399  MEMB      191             0.0000000000
     21754       191  POPC      H13R          -21.4734566504       29.9512134797       -5.2751819844  MEMB      191             0.0000000000
     21755       191  POPC      H13S          -23.2847382647       30.5260580886       -5.2565715058  MEMB      191             0.0000000000
     21756       191  POPC      C214          -22.0275233888       31.6496299173       -3.9290226958  MEMB      191             0.0000000000
     21757       191  POPC      H14R          -22.6672663071       32.5496588568       -4.0514890656  MEMB      191             0.0000000000
     21758       191  POPC      H14S          -20.9426474439       31.8597251874       -3.8140212729  MEMB      191             0.0000000000
     21759       191  POPC      C215          -22.3831390110       30.9994514504       -2.6197132822  MEMB      191             0.0000000000
     21760       191  POPC      H15R          -23.4024022177       30.5577422703       -2.6019184618  MEMB      191             0.0000000000
     21761       191  POPC      H15S          -22.5203488544       31.7639394589       -1.8253249103  MEMB      191             0.0000000000
     21762       191  POPC      C216          -21.3347890376       30.0339341659       -2.2211818508  MEMB      191             0.0000000000
     21763       191  POPC      H16R          -20.3169186748       30.4738686425       -2.2898753888  MEMB      191             0.0000000000
     21764       191  POPC      H16S          -21.3145325757       29.1046727671       -2.8297723833  MEMB      191             0.0000000000
     21765       191  POPC      C217          -21.3931684983       29.5028108042       -0.7755212600  MEMB      191             0.0000000000
     21766       191  POPC      H17R          -20.6879818391       28.6596993866       -0.6136685848  MEMB      191             0.0000000000
     21767       191  POPC      H17S          -22.3685001149       29.0663766150       -0.4712610376  MEMB      191             0.0000000000
     21768       191  POPC      C218          -20.9884091191       30.5720721166        0.3074051997  MEMB      191             0.0000000000
     21769       191  POPC      H18R          -21.9096184059       31.1824532093        0.4219892073  MEMB      191             0.0000000000
     21770       191  POPC      H18S          -20.1013729810       31.1204757693       -0.0756646749  MEMB      191             0.0000000000
     21771       191  POPC      H18T          -20.8759679271       30.1996082401        1.3480527496  MEMB      191             0.0000000000
     21772       191  POPC      C33           -19.4450121067       30.0142098248      -11.9876121085  MEMB      191             0.0000000000
     21773       191  POPC      H3X           -19.4307701061       29.0944632108      -11.3645675445  MEMB      191             0.0000000000
     21774       191  POPC      H3Y           -19.9062636544       30.8373816866      -11.4011345897  MEMB      191             0.0000000000
     21775       191  POPC      C34           -17.9063525652       30.3266636649      -12.2903192262  MEMB      191             0.0000000000
     21776       191  POPC      H4X           -17.8366288631       31.1824607681      -12.9953516560  MEMB      191             0.0000000000
     21777       191  POPC      H4Y           -17.6355533465       29.4020678603      -12.8435927003  MEMB      191             0.0000000000
     21778       191  POPC      C35           -17.1787481482       30.5359980031      -10.9743400537  MEMB      191             0.0000000000
     21779       191  POPC      H5X           -16.1615096972       30.7982435302      -11.3359675248  MEMB      191             0.0000000000
     21780       191  POPC      H5Y           -17.1005891966       29.5207326130      -10.5299885915  MEMB      191             0.0000000000
     21781       191  POPC      C36           -17.8397749085       31.5421290615       -9.9864648906  MEMB      191             0.0000000000
     21782       191  POPC      H6X           -18.7910484014       31.0782726553       -9.6484759635  MEMB      191             0.0000000000
     21783       191  POPC      H6Y           -18.0466441922       32.4971446490      -10.5151154230  MEMB      191             0.0000000000
     21784       191  POPC      C37           -16.9514425234       31.8693323644       -8.8668794666  MEMB      191             0.0000000000
     21785       191  POPC      H7X           -16.8112038756       30.9832935577       -8.2114487791  MEMB      191             0.0000000000
     21786       191  POPC      H7Y           -17.4874160424       32.5925823538       -8.2157559982  MEMB      191             0.0000000000
     21787       191  POPC      C38           -15.6390506486       32.5419358258       -9.1961647939  MEMB      191             0.0000000000
     21788       191  POPC      H8X           -15.7968070037       33.3184216147       -9.9749476259  MEMB      191             0.0000000000
     21789       191  POPC      H8Y           -14.9482167930       31.7376887291       -9.5282130790  MEMB      191             0.0000000000
     21790       191  POPC      C39           -15.0018463521       33.1509782853       -7.9555644840  MEMB      191             0.0000000000
     21791       191  POPC      H9X           -15.5969102770       34.0374109575       -7.6482260765  MEMB      191             0.0000000000
     21792       191  POPC      H9Y           -14.0696210479       33.6340914757       -8.3187150830  MEMB      191             0.0000000000
     21793       191  POPC      C310          -14.6578107672       32.2974369221       -6.7493823228  MEMB      191             0.0000000000
     21794       191  POPC      H10X          -13.5855237367       32.4545919914       -6.5047944919  MEMB      191             0.0000000000
     21795       191  POPC      H10Y          -14.7200123183       31.2213766253       -7.0187270349  MEMB      191             0.0000000000
     21796       191  POPC      C311          -15.4740078176       32.6978749157       -5.4643711751  MEMB      191             0.0000000000
     21797       191  POPC      H11X          -16.5140352095       32.9903317052       -5.7234706380  MEMB      191             0.0000000000
     21798       191  POPC      H11Y          -15.0445580908       33.6680389950       -5.1347105758  MEMB      191             0.0000000000
     21799       191  POPC      C312          -15.7316208234       31.5506510164       -4.4540916148  MEMB      191             0.0000000000
     21800       191  POPC      H12X          -14.7644943199       31.0118415193       -4.5472135245  MEMB      191             0.0000000000
     21801       191  POPC      H12Y          -16.4937358950       30.8526141913       -4.8618248260  MEMB      191             0.0000000000
     21802       191  POPC      C313          -15.9135881565       31.9784619504       -2.9884913196  MEMB      191             0.0000000000
     21803       191  POPC      H13X          -16.8387521228       32.5874499892       -3.0752457679  MEMB      191             0.0000000000
     21804       191  POPC      H13Y          -15.0595529006       32.6119834234       -2.6666301522  MEMB      191             0.0000000000
     21805       191  POPC      C314          -16.1240576045       30.7391181098       -2.1110793898  MEMB      191             0.0000000000
     21806       191  POPC      H14X          -15.1338895297       30.2598620327       -1.9555107039  MEMB      191             0.0000000000
     21807       191  POPC      H14Y          -16.7396168702       29.9653660156       -2.6177513177  MEMB      191             0.0000000000
     21808       191  POPC      C315          -16.6110067039       31.1900480898       -0.6366337817  MEMB      191             0.0000000000
     21809       191  POPC      H15X          -17.6221549818       31.6494941528       -0.6081838143  MEMB      191             0.0000000000
     21810       191  POPC      H15Y          -15.8518943527       31.9902707014       -0.5035422057  MEMB      191             0.0000000000
     21811       191  POPC      C316          -16.4541937293       30.1640939660        0.3913311819  MEMB      191             0.0000000000
     21812       191  POPC      H16X          -16.8050842967       30.5528549900        1.3711584631  MEMB      191             0.0000000000
     21813       191  POPC      H16Y          -15.3659057468       29.9681170986        0.4987699408  MEMB      191             0.0000000000
     21814       191  POPC      H16Z          -16.8681244325       29.2119887751       -0.0042424531  MEMB      191             0.0000000000
     21815       192  POPC      N             -30.2628056895      -16.2408455348      -18.5747226644  MEMB      192             0.0000000000
     21816       192  POPC      C12           -31.2968563243      -15.6102337603      -19.5397305237  MEMB      192             0.0000000000
     21817       192  POPC      H12A          -30.7929430701      -15.0318814799      -20.2999804750  MEMB      192             0.0000000000
     21818       192  POPC      H12B          -31.8870119050      -14.9197826213      -18.9554415144  MEMB      192             0.0000000000
     21819       192  POPC      C13           -29.4573410379      -15.1019752206      -18.0042273099  MEMB      192             0.0000000000
     21820       192  POPC      H13A          -30.0294197338      -14.5384957868      -17.2819966386  MEMB      192             0.0000000000
     21821       192  POPC      H13B          -28.5704914551      -15.4633576170      -17.5049273982  MEMB      192             0.0000000000
     21822       192  POPC      H13C          -29.1141892133      -14.3502124266      -18.6995686284  MEMB      192             0.0000000000
     21823       192  POPC      C14           -31.0358931297      -17.0008496224      -17.4537752870  MEMB      192             0.0000000000
     21824       192  POPC      H14A          -31.8305093498      -17.5262880823      -17.9625969760  MEMB      192             0.0000000000
     21825       192  POPC      H14B          -30.3844153842      -17.4661806673      -16.7289004831  MEMB      192             0.0000000000
     21826       192  POPC      H14C          -31.4678408222      -16.2053976282      -16.8646426127  MEMB      192             0.0000000000
     21827       192  POPC      C15           -29.6244229867      -17.2114433959      -19.4518157758  MEMB      192             0.0000000000
     21828       192  POPC      H15A          -29.0411930595      -16.6957745253      -20.2003668685  MEMB      192             0.0000000000
     21829       192  POPC      H15B          -30.4240952925      -17.8342299042      -19.8247246826  MEMB      192             0.0000000000
     21830       192  POPC      H15C          -29.0666600730      -17.9798417441      -18.9371658903  MEMB      192             0.0000000000
     21831       192  POPC      C11           -32.2295582715      -16.5352784077      -20.3002427585  MEMB      192             0.0000000000
     21832       192  POPC      H11A          -31.6765150436      -17.2062080147      -20.9918478449  MEMB      192             0.0000000000
     21833       192  POPC      H11B          -32.8451395085      -15.8252877606      -20.8929433100  MEMB      192             0.0000000000
     21834       192  POPC      P             -34.5154824394      -16.8072804474      -19.1556307914  MEMB      192             0.0000000000
     21835       192  POPC      O13           -35.0348829342      -17.4531191911      -17.9108335008  MEMB      192             0.0000000000
     21836       192  POPC      O14           -35.2995271407      -17.0085562784      -20.3640881862  MEMB      192             0.0000000000
     21837       192  POPC      O12           -33.0113478908      -17.2461537739      -19.3988393438  MEMB      192             0.0000000000
     21838       192  POPC      O11           -34.4637526412      -15.2427041852      -18.8460938163  MEMB      192             0.0000000000
     21839       192  POPC      C1            -35.6665173243      -14.5051758075      -18.7762934977  MEMB      192             0.0000000000
     21840       192  POPC      HA            -36.5614717685      -15.1590400065      -18.6998796318  MEMB      192             0.0000000000
     21841       192  POPC      HB            -35.7891988789      -13.9968403875      -19.7565309045  MEMB      192             0.0000000000
     21842       192  POPC      C2            -35.5702006875      -13.3772549811      -17.7182620815  MEMB      192             0.0000000000
     21843       192  POPC      HS            -36.4904426803      -12.7663508551      -17.8377279012  MEMB      192             0.0000000000
     21844       192  POPC      O21           -34.4486008933      -12.5114402669      -17.9960918820  MEMB      192             0.0000000000
     21845       192  POPC      C21           -34.0912449853      -11.5101918335      -17.3516175156  MEMB      192             0.0000000000
     21846       192  POPC      O22           -34.8286199232      -10.8035330608      -16.6613921752  MEMB      192             0.0000000000
     21847       192  POPC      C22           -32.6070563962      -11.1931818690      -17.4658215286  MEMB      192             0.0000000000
     21848       192  POPC      H2R           -32.4705597655      -10.1100743971      -17.6721411801  MEMB      192             0.0000000000
     21849       192  POPC      H2S           -32.1593447453      -11.8387443587      -18.2513939846  MEMB      192             0.0000000000
     21850       192  POPC      C3            -35.4916683839      -14.0161116575      -16.2137802577  MEMB      192             0.0000000000
     21851       192  POPC      HX            -36.4659950548      -14.5462184356      -16.1505741994  MEMB      192             0.0000000000
     21852       192  POPC      HY            -35.4209771797      -13.1355918607      -15.5399786501  MEMB      192             0.0000000000
     21853       192  POPC      O31           -34.3380204419      -14.8071217779      -16.0478486414  MEMB      192             0.0000000000
     21854       192  POPC      C31           -34.3544004244      -15.6143405312      -14.9542559472  MEMB      192             0.0000000000
     21855       192  POPC      O32           -35.3679277105      -15.8642635594      -14.2798481997  MEMB      192             0.0000000000
     21856       192  POPC      C32           -32.9847802272      -16.3059311489      -14.8624649267  MEMB      192             0.0000000000
     21857       192  POPC      H2X           -32.2295961699      -15.5787884308      -15.2302714385  MEMB      192             0.0000000000
     21858       192  POPC      H2Y           -32.9049526619      -17.1337185155      -15.5991581084  MEMB      192             0.0000000000
     21859       192  POPC      C23           -31.8520111196      -11.7271424135      -16.1928318455  MEMB      192             0.0000000000
     21860       192  POPC      H3R           -32.0914937878      -12.8107002053      -16.1392425948  MEMB      192             0.0000000000
     21861       192  POPC      H3S           -32.3190629972      -11.2462675972      -15.3068618120  MEMB      192             0.0000000000
     21862       192  POPC      C24           -30.3893997735      -11.3729963863      -16.1734349901  MEMB      192             0.0000000000
     21863       192  POPC      H4R           -30.1910991271      -10.2805040738      -16.2116151842  MEMB      192             0.0000000000
     21864       192  POPC      H4S           -29.9678424731      -11.8496941957      -17.0841323697  MEMB      192             0.0000000000
     21865       192  POPC      C25           -29.6413284341      -12.0062877298      -15.0396067923  MEMB      192             0.0000000000
     21866       192  POPC      H5R           -28.5702837697      -11.7610794819      -15.2040968039  MEMB      192             0.0000000000
     21867       192  POPC      H5S           -29.8284956208      -13.0973940743      -15.1332902920  MEMB      192             0.0000000000
     21868       192  POPC      C26           -30.0812198194      -11.6169067536      -13.6279897592  MEMB      192             0.0000000000
     21869       192  POPC      H6R           -31.0735433159      -12.0974180887      -13.4911540987  MEMB      192             0.0000000000
     21870       192  POPC      H6S           -30.2825030849      -10.5388098315      -13.4504703800  MEMB      192             0.0000000000
     21871       192  POPC      C27           -29.1983901433      -12.2772593704      -12.5892779407  MEMB      192             0.0000000000
     21872       192  POPC      H7R           -28.1332860178      -12.0376255711      -12.7953123452  MEMB      192             0.0000000000
     21873       192  POPC      H7S           -29.2170182831      -13.3590698103      -12.8415870703  MEMB      192             0.0000000000
     21874       192  POPC      C28           -29.4196246095      -11.9212206892      -11.1024363688  MEMB      192             0.0000000000
     21875       192  POPC      H8R           -29.6274626451      -10.8305651022      -11.0625035979  MEMB      192             0.0000000000
     21876       192  POPC      H8S           -28.4722707434      -12.0797468002      -10.5441250511  MEMB      192             0.0000000000
     21877       192  POPC      C29           -30.5805826101      -12.7485022387      -10.4965599439  MEMB      192             0.0000000000
     21878       192  POPC      H91           -31.5187237337      -12.6199490345      -11.0563500280  MEMB      192             0.0000000000
     21879       192  POPC      C210          -30.5825299015      -13.5645100880       -9.3783739815  MEMB      192             0.0000000000
     21880       192  POPC      H101          -31.4717364127      -14.1487263093       -9.0990829375  MEMB      192             0.0000000000
     21881       192  POPC      C211          -29.5036720801      -13.8937184100       -8.4416566101  MEMB      192             0.0000000000
     21882       192  POPC      H11R          -29.1506981609      -12.9319403553       -8.0118741698  MEMB      192             0.0000000000
     21883       192  POPC      H11S          -28.6467727434      -14.3073107775       -9.0152293971  MEMB      192             0.0000000000
     21884       192  POPC      C212          -30.0268427523      -15.0067263541       -7.5217970189  MEMB      192             0.0000000000
     21885       192  POPC      H12R          -30.2911772536      -15.9756023866       -7.9969044761  MEMB      192             0.0000000000
     21886       192  POPC      H12S          -30.9790831506      -14.6588322279       -7.0673413379  MEMB      192             0.0000000000
     21887       192  POPC      C213          -29.0200293690      -15.2079309859       -6.4083074073  MEMB      192             0.0000000000
     21888       192  POPC      H13R          -28.5901330306      -14.2096167377       -6.1783535436  MEMB      192             0.0000000000
     21889       192  POPC      H13S          -28.2502581272      -15.8648118208       -6.8668701620  MEMB      192             0.0000000000
     21890       192  POPC      C214          -29.6049228770      -16.0060208787       -5.2293980991  MEMB      192             0.0000000000
     21891       192  POPC      H14R          -28.7855388574      -16.5752821033       -4.7406518415  MEMB      192             0.0000000000
     21892       192  POPC      H14S          -30.4307353962      -16.6513567905       -5.5980395184  MEMB      192             0.0000000000
     21893       192  POPC      C215          -30.1872539226      -15.0555244313       -4.2313853463  MEMB      192             0.0000000000
     21894       192  POPC      H15R          -30.5923624606      -14.1221792009       -4.6775625994  MEMB      192             0.0000000000
     21895       192  POPC      H15S          -29.3054547610      -14.5832868042       -3.7479153443  MEMB      192             0.0000000000
     21896       192  POPC      C216          -31.0213361593      -15.5939968257       -3.0605165872  MEMB      192             0.0000000000
     21897       192  POPC      H16R          -31.8540404743      -16.0186590638       -3.6610060099  MEMB      192             0.0000000000
     21898       192  POPC      H16S          -31.4482147058      -14.7347011708       -2.5004208452  MEMB      192             0.0000000000
     21899       192  POPC      C217          -30.2876491638      -16.4913682921       -2.1294880576  MEMB      192             0.0000000000
     21900       192  POPC      H17R          -29.4375487775      -15.9614767180       -1.6490029684  MEMB      192             0.0000000000
     21901       192  POPC      H17S          -29.8659547721      -17.3672548345       -2.6673696379  MEMB      192             0.0000000000
     21902       192  POPC      C218          -31.2876456084      -17.0295392924       -1.0805091707  MEMB      192             0.0000000000
     21903       192  POPC      H18R          -30.8333852153      -17.7488857847       -0.3660103260  MEMB      192             0.0000000000
     21904       192  POPC      H18S          -32.1657347272      -17.4365705002       -1.6260415360  MEMB      192             0.0000000000
     21905       192  POPC      H18T          -31.6587760777      -16.1536585417       -0.5065619822  MEMB      192             0.0000000000
     21906       192  POPC      C33           -32.8512682413      -16.9515858372      -13.5036234715  MEMB      192             0.0000000000
     21907       192  POPC      H3X           -31.9333884128      -17.5586408190      -13.6562727992  MEMB      192             0.0000000000
     21908       192  POPC      H3Y           -33.7579082241      -17.5794864426      -13.3692141223  MEMB      192             0.0000000000
     21909       192  POPC      C34           -32.6933177654      -15.9766330317      -12.2926457779  MEMB      192             0.0000000000
     21910       192  POPC      H4X           -33.6329045284      -15.4097693986      -12.1189696576  MEMB      192             0.0000000000
     21911       192  POPC      H4Y           -31.8655680259      -15.2999883379      -12.5948098676  MEMB      192             0.0000000000
     21912       192  POPC      C35           -32.2359196635      -16.6830449923      -10.9367757449  MEMB      192             0.0000000000
     21913       192  POPC      H5X           -31.5373029563      -16.1027984206      -10.2968001359  MEMB      192             0.0000000000
     21914       192  POPC      H5Y           -31.6591875178      -17.5748749024      -11.2628746462  MEMB      192             0.0000000000
     21915       192  POPC      C36           -33.3867530916      -17.2299263436      -10.1834929520  MEMB      192             0.0000000000
     21916       192  POPC      H6X           -33.8162778306      -18.0016433246      -10.8574969547  MEMB      192             0.0000000000
     21917       192  POPC      H6Y           -34.1825382398      -16.4724453052      -10.0183574274  MEMB      192             0.0000000000
     21918       192  POPC      C37           -32.9928047747      -17.8171330160       -8.7961278490  MEMB      192             0.0000000000
     21919       192  POPC      H7X           -32.6815968370      -16.9552470739       -8.1679375050  MEMB      192             0.0000000000
     21920       192  POPC      H7Y           -32.0915413141      -18.4664716246       -8.7760128505  MEMB      192             0.0000000000
     21921       192  POPC      C38           -34.1437318396      -18.5448568180       -8.1429867871  MEMB      192             0.0000000000
     21922       192  POPC      H8X           -33.8345357149      -19.1983294073       -7.2993673771  MEMB      192             0.0000000000
     21923       192  POPC      H8Y           -34.7071567011      -19.0321812297       -8.9672367588  MEMB      192             0.0000000000
     21924       192  POPC      C39           -35.3023152848      -17.5236477356       -7.4571873552  MEMB      192             0.0000000000
     21925       192  POPC      H9X           -36.2243904644      -18.0562844744       -7.1403326639  MEMB      192             0.0000000000
     21926       192  POPC      H9Y           -35.5748781581      -16.6924383261       -8.1421111125  MEMB      192             0.0000000000
     21927       192  POPC      C310          -34.7071706510      -16.7877320440       -6.2768475094  MEMB      192             0.0000000000
     21928       192  POPC      H10X          -33.7170354217      -17.2601858792       -6.1015171989  MEMB      192             0.0000000000
     21929       192  POPC      H10Y          -35.3946972833      -16.9276027354       -5.4154157453  MEMB      192             0.0000000000
     21930       192  POPC      C311          -34.7820263190      -15.2778192741       -6.5626022251  MEMB      192             0.0000000000
     21931       192  POPC      H11X          -35.8686918910      -15.0717410737       -6.6675346855  MEMB      192             0.0000000000
     21932       192  POPC      H11Y          -34.2608637956      -15.0400974661       -7.5145472311  MEMB      192             0.0000000000
     21933       192  POPC      C312          -34.2024880783      -14.5169508369       -5.4823311336  MEMB      192             0.0000000000
     21934       192  POPC      H12X          -34.3413923088      -13.4416425532       -5.7246918909  MEMB      192             0.0000000000
     21935       192  POPC      H12Y          -33.1322603094      -14.7824666921       -5.3465560709  MEMB      192             0.0000000000
     21936       192  POPC      C313          -34.8402689541      -14.8465566436       -4.1273789289  MEMB      192             0.0000000000
     21937       192  POPC      H13X          -34.5584525258      -15.8314829676       -3.6974714840  MEMB      192             0.0000000000
     21938       192  POPC      H13Y          -35.9487989497      -14.8030708732       -4.0674521796  MEMB      192             0.0000000000
     21939       192  POPC      C314          -34.3297404498      -13.8342013335       -3.1010401224  MEMB      192             0.0000000000
     21940       192  POPC      H14X          -34.5298714877      -12.8170351323       -3.5005914292  MEMB      192             0.0000000000
     21941       192  POPC      H14Y          -33.2280389133      -13.9530646944       -3.0207526999  MEMB      192             0.0000000000
     21942       192  POPC      C315          -34.9884675368      -14.1404375097       -1.7676412353  MEMB      192             0.0000000000
     21943       192  POPC      H15X          -34.7551108457      -15.2078786746       -1.5665566098  MEMB      192             0.0000000000
     21944       192  POPC      H15Y          -36.0691243861      -13.9271784923       -1.9126321785  MEMB      192             0.0000000000
     21945       192  POPC      C316          -34.4674556737      -13.2651869243       -0.6369876834  MEMB      192             0.0000000000
     21946       192  POPC      H16X          -33.3595883799      -13.3273668573       -0.5814473477  MEMB      192             0.0000000000
     21947       192  POPC      H16Y          -34.8993199330      -13.5299149903        0.3518160134  MEMB      192             0.0000000000
     21948       192  POPC      H16Z          -34.6604473113      -12.2219834115       -0.9668385833  MEMB      192             0.0000000000
     21949       193  POPC      N             -30.4386398828       19.9255768322      -20.8478128846  MEMB      193             0.0000000000
     21950       193  POPC      C12           -29.9177035074       21.3340328118      -20.3740667975  MEMB      193             0.0000000000
     21951       193  POPC      H12A          -29.5121573200       21.8910859418      -21.2057061958  MEMB      193             0.0000000000
     21952       193  POPC      H12B          -29.0524390520       21.0262050684      -19.8057715420  MEMB      193             0.0000000000
     21953       193  POPC      C13           -31.6063355528       20.1958996412      -21.7445227844  MEMB      193             0.0000000000
     21954       193  POPC      H13A          -31.8821016419       19.2834049867      -22.2521710611  MEMB      193             0.0000000000
     21955       193  POPC      H13B          -32.4752638644       20.4864178881      -21.1727162724  MEMB      193             0.0000000000
     21956       193  POPC      H13C          -31.2965738365       20.8756891116      -22.5244804086  MEMB      193             0.0000000000
     21957       193  POPC      C14           -29.3260112040       19.2217912920      -21.6461207189  MEMB      193             0.0000000000
     21958       193  POPC      H14A          -28.6904916677       18.7258008800      -20.9274354450  MEMB      193             0.0000000000
     21959       193  POPC      H14B          -29.8554085627       18.5862246223      -22.3405221435  MEMB      193             0.0000000000
     21960       193  POPC      H14C          -28.7312763541       19.9220962368      -22.2138031203  MEMB      193             0.0000000000
     21961       193  POPC      C15           -30.9767611514       19.1528310722      -19.6731960817  MEMB      193             0.0000000000
     21962       193  POPC      H15A          -31.6103615340       19.7600287172      -19.0437030271  MEMB      193             0.0000000000
     21963       193  POPC      H15B          -30.1490771959       18.8441366142      -19.0518692967  MEMB      193             0.0000000000
     21964       193  POPC      H15C          -31.4796741543       18.2876475764      -20.0793192739  MEMB      193             0.0000000000
     21965       193  POPC      C11           -30.8709206846       22.2039707293      -19.4841040439  MEMB      193             0.0000000000
     21966       193  POPC      H11A          -31.7964259656       22.4219661904      -20.0587681052  MEMB      193             0.0000000000
     21967       193  POPC      H11B          -30.4246555964       23.2115304928      -19.3427109187  MEMB      193             0.0000000000
     21968       193  POPC      P             -30.3312518185       21.5181387852      -17.0434884829  MEMB      193             0.0000000000
     21969       193  POPC      O13           -28.9522014866       21.7885374547      -17.4594685973  MEMB      193             0.0000000000
     21970       193  POPC      O14           -30.5133913685       20.2394555008      -16.2634559469  MEMB      193             0.0000000000
     21971       193  POPC      O12           -31.2596538165       21.5327774416      -18.2771698950  MEMB      193             0.0000000000
     21972       193  POPC      O11           -30.8007016284       22.7443854473      -16.1865937950  MEMB      193             0.0000000000
     21973       193  POPC      C1            -30.7950379905       24.0459193301      -16.6913845264  MEMB      193             0.0000000000
     21974       193  POPC      HA            -31.7019143174       24.2361397142      -17.3043386670  MEMB      193             0.0000000000
     21975       193  POPC      HB            -30.0179132905       24.1844803029      -17.4731769033  MEMB      193             0.0000000000
     21976       193  POPC      C2            -30.5599487249       25.1633220766      -15.5583671188  MEMB      193             0.0000000000
     21977       193  POPC      HS            -30.5741281790       26.1686362846      -16.0310860397  MEMB      193             0.0000000000
     21978       193  POPC      O21           -29.2082218973       25.0173484440      -14.9758737244  MEMB      193             0.0000000000
     21979       193  POPC      C21           -28.1247813030       25.2411685153      -15.8396931720  MEMB      193             0.0000000000
     21980       193  POPC      O22           -28.2065265487       25.7834785430      -16.9294971256  MEMB      193             0.0000000000
     21981       193  POPC      C22           -26.7949151572       24.5363858731      -15.2767965080  MEMB      193             0.0000000000
     21982       193  POPC      H2R           -26.4090957932       25.2065264845      -14.4790648068  MEMB      193             0.0000000000
     21983       193  POPC      H2S           -26.0673922674       24.4936109889      -16.1153679861  MEMB      193             0.0000000000
     21984       193  POPC      C3            -31.6537518438       25.1785706262      -14.3661591495  MEMB      193             0.0000000000
     21985       193  POPC      HX            -32.6625691004       25.4939383963      -14.7084339080  MEMB      193             0.0000000000
     21986       193  POPC      HY            -31.3025344865       25.8132587628      -13.5246495173  MEMB      193             0.0000000000
     21987       193  POPC      O31           -31.8012117196       23.8147003972      -13.9352404065  MEMB      193             0.0000000000
     21988       193  POPC      C31           -31.0481240515       23.3929917333      -12.8647143802  MEMB      193             0.0000000000
     21989       193  POPC      O32           -30.2788468173       24.1046886244      -12.2335659563  MEMB      193             0.0000000000
     21990       193  POPC      C32           -31.7095799949       22.1327465455      -12.2957707256  MEMB      193             0.0000000000
     21991       193  POPC      H2X           -32.7631480748       22.4173584714      -12.0876569418  MEMB      193             0.0000000000
     21992       193  POPC      H2Y           -31.1622553049       21.7775071597      -11.3965704115  MEMB      193             0.0000000000
     21993       193  POPC      C23           -27.0911394081       23.1185290618      -14.7371943933  MEMB      193             0.0000000000
     21994       193  POPC      H3R           -27.8098117100       22.4760774084      -15.2895414010  MEMB      193             0.0000000000
     21995       193  POPC      H3S           -27.7346220348       23.3448626952      -13.8602540873  MEMB      193             0.0000000000
     21996       193  POPC      C24           -25.8771422340       22.2433590922      -14.3788247093  MEMB      193             0.0000000000
     21997       193  POPC      H4R           -25.2298826355       22.1486071810      -15.2768213202  MEMB      193             0.0000000000
     21998       193  POPC      H4S           -26.1276928725       21.2149305195      -14.0413639280  MEMB      193             0.0000000000
     21999       193  POPC      C25           -24.9771215001       22.9595774270      -13.3447191146  MEMB      193             0.0000000000
     22000       193  POPC      H5R           -24.5256834216       23.9227553849      -13.6653630088  MEMB      193             0.0000000000
     22001       193  POPC      H5S           -24.1594024045       22.2257793941      -13.1798038622  MEMB      193             0.0000000000
     22002       193  POPC      C26           -25.6218156140       23.2167471491      -11.9665788734  MEMB      193             0.0000000000
     22003       193  POPC      H6R           -26.6823737591       23.5070397778      -12.1255359763  MEMB      193             0.0000000000
     22004       193  POPC      H6S           -25.0807595785       24.0173295019      -11.4182659465  MEMB      193             0.0000000000
     22005       193  POPC      C27           -25.3364365869       22.0255093609      -11.0285585120  MEMB      193             0.0000000000
     22006       193  POPC      H7R           -24.2727871213       21.9407672032      -10.7190601506  MEMB      193             0.0000000000
     22007       193  POPC      H7S           -25.4291331051       21.0389731630      -11.5310276356  MEMB      193             0.0000000000
     22008       193  POPC      C28           -26.1241125308       22.0227601732       -9.6869221041  MEMB      193             0.0000000000
     22009       193  POPC      H8R           -25.8666723737       22.8739108488       -9.0208981047  MEMB      193             0.0000000000
     22010       193  POPC      H8S           -25.8226867662       21.1227186274       -9.1095240306  MEMB      193             0.0000000000
     22011       193  POPC      C29           -27.6442980817       21.8722846496       -9.9641595522  MEMB      193             0.0000000000
     22012       193  POPC      H91           -27.9282435140       20.8841864113      -10.3553593144  MEMB      193             0.0000000000
     22013       193  POPC      C210          -28.5916530223       22.7905978260       -9.7302878649  MEMB      193             0.0000000000
     22014       193  POPC      H101          -29.6281368141       22.5065156457       -9.9648057519  MEMB      193             0.0000000000
     22015       193  POPC      C211          -28.4319312865       24.1368514028       -9.1747173211  MEMB      193             0.0000000000
     22016       193  POPC      H11R          -28.6408002398       24.9662586339       -9.8837855542  MEMB      193             0.0000000000
     22017       193  POPC      H11S          -27.3829729017       24.2832961082       -8.8392149693  MEMB      193             0.0000000000
     22018       193  POPC      C212          -29.3115722327       24.4972838834       -7.9951829486  MEMB      193             0.0000000000
     22019       193  POPC      H12R          -29.2835266091       23.7716254538       -7.1543777801  MEMB      193             0.0000000000
     22020       193  POPC      H12S          -30.3062836867       24.4856222822       -8.4898891219  MEMB      193             0.0000000000
     22021       193  POPC      C213          -28.8458965940       25.8278964862       -7.3308240718  MEMB      193             0.0000000000
     22022       193  POPC      H13R          -29.7590361136       26.3337165182       -6.9505042133  MEMB      193             0.0000000000
     22023       193  POPC      H13S          -28.4327340750       26.4454732594       -8.1567878158  MEMB      193             0.0000000000
     22024       193  POPC      C214          -27.7358340623       25.8743131723       -6.2364284334  MEMB      193             0.0000000000
     22025       193  POPC      H14R          -27.8963396189       26.8868446989       -5.8082468001  MEMB      193             0.0000000000
     22026       193  POPC      H14S          -26.8428131959       25.7670446472       -6.8886002716  MEMB      193             0.0000000000
     22027       193  POPC      C215          -27.7426116962       24.7129326023       -5.3165886728  MEMB      193             0.0000000000
     22028       193  POPC      H15R          -27.5120159048       23.7348903051       -5.7904872669  MEMB      193             0.0000000000
     22029       193  POPC      H15S          -28.7527470970       24.6511575796       -4.8581878087  MEMB      193             0.0000000000
     22030       193  POPC      C216          -26.8329835325       24.9724167732       -4.1146010714  MEMB      193             0.0000000000
     22031       193  POPC      H16R          -27.0652340806       26.0093696074       -3.7903965952  MEMB      193             0.0000000000
     22032       193  POPC      H16S          -25.7956394101       24.9182632449       -4.5086899485  MEMB      193             0.0000000000
     22033       193  POPC      C217          -26.9917212642       23.9383422959       -2.9546759889  MEMB      193             0.0000000000
     22034       193  POPC      H17R          -26.1807835629       24.2155798114       -2.2476815766  MEMB      193             0.0000000000
     22035       193  POPC      H17S          -26.9394695084       22.8827445359       -3.2971728697  MEMB      193             0.0000000000
     22036       193  POPC      C218          -28.3050977743       24.1136452093       -2.1860286870  MEMB      193             0.0000000000
     22037       193  POPC      H18R          -28.5456781717       25.1663958371       -1.9249586109  MEMB      193             0.0000000000
     22038       193  POPC      H18S          -28.2679465764       23.6554634701       -1.1745896190  MEMB      193             0.0000000000
     22039       193  POPC      H18T          -29.0994352201       23.6523416442       -2.8109676741  MEMB      193             0.0000000000
     22040       193  POPC      C33           -31.6720356371       21.0311098676      -13.3604159666  MEMB      193             0.0000000000
     22041       193  POPC      H3X           -30.6606785216       21.0404709848      -13.8201880441  MEMB      193             0.0000000000
     22042       193  POPC      H3Y           -32.4406130267       21.1870105593      -14.1473751410  MEMB      193             0.0000000000
     22043       193  POPC      C34           -31.9009701533       19.6113158457      -12.7730993783  MEMB      193             0.0000000000
     22044       193  POPC      H4X           -31.1447207986       19.3068979506      -12.0182894273  MEMB      193             0.0000000000
     22045       193  POPC      H4Y           -31.6195984166       18.9156101690      -13.5923334983  MEMB      193             0.0000000000
     22046       193  POPC      C35           -33.2830711509       19.3106441909      -12.1928837755  MEMB      193             0.0000000000
     22047       193  POPC      H5X           -33.7746542660       18.6623146325      -12.9494126168  MEMB      193             0.0000000000
     22048       193  POPC      H5Y           -33.9110323739       20.2193445211      -12.3122554859  MEMB      193             0.0000000000
     22049       193  POPC      C36           -33.2133999373       18.5576484816      -10.8725203016  MEMB      193             0.0000000000
     22050       193  POPC      H6X           -32.5872160208       17.6548767272      -11.0374981230  MEMB      193             0.0000000000
     22051       193  POPC      H6Y           -34.1947648375       18.1251589392      -10.5823538612  MEMB      193             0.0000000000
     22052       193  POPC      C37           -32.6161312913       19.4092565441       -9.7267840550  MEMB      193             0.0000000000
     22053       193  POPC      H7X           -31.5293222738       19.5552213162       -9.9052818643  MEMB      193             0.0000000000
     22054       193  POPC      H7Y           -32.7867521393       18.8381606558       -8.7892018097  MEMB      193             0.0000000000
     22055       193  POPC      C38           -33.2551210968       20.7441626214       -9.3932825882  MEMB      193             0.0000000000
     22056       193  POPC      H8X           -34.3116896807       20.6877390110       -9.0544599482  MEMB      193             0.0000000000
     22057       193  POPC      H8Y           -33.1562537037       21.2392063773      -10.3829675829  MEMB      193             0.0000000000
     22058       193  POPC      C39           -32.4413365756       21.7041508938       -8.4027387796  MEMB      193             0.0000000000
     22059       193  POPC      H9X           -32.8278095161       22.7417576286       -8.4940172692  MEMB      193             0.0000000000
     22060       193  POPC      H9Y           -31.3648881782       21.5999758216       -8.6571543771  MEMB      193             0.0000000000
     22061       193  POPC      C310          -32.5284293394       21.2930084935       -6.9374444311  MEMB      193             0.0000000000
     22062       193  POPC      H10X          -32.5008712662       20.1896187380       -6.8105875546  MEMB      193             0.0000000000
     22063       193  POPC      H10Y          -33.5171277551       21.7285375662       -6.6783869154  MEMB      193             0.0000000000
     22064       193  POPC      C311          -31.6125023649       21.9592453188       -5.9433064716  MEMB      193             0.0000000000
     22065       193  POPC      H11X          -31.8941877418       23.0286590891       -6.0497429568  MEMB      193             0.0000000000
     22066       193  POPC      H11Y          -30.5391496755       21.8316349713       -6.2001152360  MEMB      193             0.0000000000
     22067       193  POPC      C312          -31.7399502585       21.5872839443       -4.4364121719  MEMB      193             0.0000000000
     22068       193  POPC      H12X          -32.7939447465       21.3064713459       -4.2253171854  MEMB      193             0.0000000000
     22069       193  POPC      H12Y          -31.4786135370       22.4003812496       -3.7258504067  MEMB      193             0.0000000000
     22070       193  POPC      C313          -30.7615773995       20.4985028463       -3.9961316878  MEMB      193             0.0000000000
     22071       193  POPC      H13X          -29.8457878788       20.5902942889       -4.6184058693  MEMB      193             0.0000000000
     22072       193  POPC      H13Y          -31.3052516841       19.5859332180       -4.3216404392  MEMB      193             0.0000000000
     22073       193  POPC      C314          -30.2031979078       20.4741539948       -2.5834572746  MEMB      193             0.0000000000
     22074       193  POPC      H14X          -29.4885942237       21.3197495728       -2.4905552889  MEMB      193             0.0000000000
     22075       193  POPC      H14Y          -29.7310529607       19.4693559023       -2.5412573881  MEMB      193             0.0000000000
     22076       193  POPC      C315          -31.2711506896       20.6249792473       -1.4980867548  MEMB      193             0.0000000000
     22077       193  POPC      H15X          -31.0201018050       19.8116392655       -0.7841025098  MEMB      193             0.0000000000
     22078       193  POPC      H15Y          -32.2053581270       20.1843728957       -1.9072850324  MEMB      193             0.0000000000
     22079       193  POPC      C316          -31.3332853320       21.8733545470       -0.6736646891  MEMB      193             0.0000000000
     22080       193  POPC      H16X          -31.8121906359       22.7100182952       -1.2259007926  MEMB      193             0.0000000000
     22081       193  POPC      H16Y          -30.3230130226       22.1691994007       -0.3184936811  MEMB      193             0.0000000000
     22082       193  POPC      H16Z          -31.9656326614       21.7884535677        0.2358688084  MEMB      193             0.0000000000
     22083       194  POPC      N             -23.3650417219       24.9006063085      -18.1877035187  MEMB      194             0.0000000000
     22084       194  POPC      C12           -24.8259175169       24.4930981003      -18.0238758374  MEMB      194             0.0000000000
     22085       194  POPC      H12A          -25.0263196568       24.1368866366      -17.0241996549  MEMB      194             0.0000000000
     22086       194  POPC      H12B          -25.0490988974       23.6407641506      -18.6484692006  MEMB      194             0.0000000000
     22087       194  POPC      C13           -22.9737322041       25.0954619019      -19.5976717803  MEMB      194             0.0000000000
     22088       194  POPC      H13A          -21.9733266037       25.4761540172      -19.7414156556  MEMB      194             0.0000000000
     22089       194  POPC      H13B          -23.0391705887       24.1815924815      -20.1694763933  MEMB      194             0.0000000000
     22090       194  POPC      H13C          -23.6510574523       25.7864696681      -20.0773997847  MEMB      194             0.0000000000
     22091       194  POPC      C14           -23.0942158193       26.2189985250      -17.5057458045  MEMB      194             0.0000000000
     22092       194  POPC      H14A          -23.8674566173       26.9574396518      -17.6580721184  MEMB      194             0.0000000000
     22093       194  POPC      H14B          -23.0417761335       26.0166157295      -16.4461744874  MEMB      194             0.0000000000
     22094       194  POPC      H14C          -22.1038495676       26.5116102235      -17.8218997534  MEMB      194             0.0000000000
     22095       194  POPC      C15           -22.4692137272       23.8770523048      -17.4630694959  MEMB      194             0.0000000000
     22096       194  POPC      H15A          -21.4199774721       24.1094451951      -17.5702924817  MEMB      194             0.0000000000
     22097       194  POPC      H15B          -22.7132511972       22.9555697559      -17.9707263390  MEMB      194             0.0000000000
     22098       194  POPC      H15C          -22.6664964189       23.8137164804      -16.4031317608  MEMB      194             0.0000000000
     22099       194  POPC      C11           -25.8369744666       25.6255028853      -18.3121080563  MEMB      194             0.0000000000
     22100       194  POPC      H11A          -25.7716037476       26.4454852102      -17.5653306036  MEMB      194             0.0000000000
     22101       194  POPC      H11B          -26.8583505176       25.2024266849      -18.2020250219  MEMB      194             0.0000000000
     22102       194  POPC      P             -25.9187427834       27.5550361638      -20.0561048839  MEMB      194             0.0000000000
     22103       194  POPC      O13           -27.3648007823       27.8642513401      -19.9901594125  MEMB      194             0.0000000000
     22104       194  POPC      O14           -25.2445513405       27.7516451193      -21.3698505269  MEMB      194             0.0000000000
     22105       194  POPC      O12           -25.7420309576       26.0539293867      -19.6500719046  MEMB      194             0.0000000000
     22106       194  POPC      O11           -25.2172776637       28.3594684378      -18.8436387717  MEMB      194             0.0000000000
     22107       194  POPC      C1            -24.3573008351       29.4821496907      -19.2161428185  MEMB      194             0.0000000000
     22108       194  POPC      HA            -24.6734554691       30.0793684204      -20.0980142093  MEMB      194             0.0000000000
     22109       194  POPC      HB            -23.3247762207       29.2072608068      -19.5205275804  MEMB      194             0.0000000000
     22110       194  POPC      C2            -24.4277301332       30.5544199866      -18.0316870429  MEMB      194             0.0000000000
     22111       194  POPC      HS            -23.5999456091       31.2815618665      -18.1743697013  MEMB      194             0.0000000000
     22112       194  POPC      O21           -24.1708565951       29.9129492384      -16.7424146355  MEMB      194             0.0000000000
     22113       194  POPC      C21           -22.8889352008       29.4562708779      -16.5448399849  MEMB      194             0.0000000000
     22114       194  POPC      O22           -21.9671932495       29.5147760391      -17.2872110881  MEMB      194             0.0000000000
     22115       194  POPC      C22           -22.8471611442       28.8477461012      -15.1147183254  MEMB      194             0.0000000000
     22116       194  POPC      H2R           -21.8779823122       28.3898653738      -14.8225567416  MEMB      194             0.0000000000
     22117       194  POPC      H2S           -23.5411043785       27.9802628471      -15.0993395999  MEMB      194             0.0000000000
     22118       194  POPC      C3            -25.8254755811       31.3428786714      -17.9186313139  MEMB      194             0.0000000000
     22119       194  POPC      HX            -25.9720009692       31.9432869387      -18.8418655055  MEMB      194             0.0000000000
     22120       194  POPC      HY            -25.7681516199       31.9854063500      -17.0140910069  MEMB      194             0.0000000000
     22121       194  POPC      O31           -26.8935160876       30.3078447544      -17.7740050704  MEMB      194             0.0000000000
     22122       194  POPC      C31           -27.7529631266       30.4661203371      -16.7680941898  MEMB      194             0.0000000000
     22123       194  POPC      O32           -27.6707912749       31.2783597050      -15.8371727232  MEMB      194             0.0000000000
     22124       194  POPC      C32           -28.7600118890       29.3537666476      -16.9234401961  MEMB      194             0.0000000000
     22125       194  POPC      H2X           -28.3929802223       28.4978677132      -17.5292830024  MEMB      194             0.0000000000
     22126       194  POPC      H2Y           -29.5391353776       29.7594452846      -17.6036697619  MEMB      194             0.0000000000
     22127       194  POPC      C23           -23.2309158904       29.9114315791      -14.0674948218  MEMB      194             0.0000000000
     22128       194  POPC      H3R           -24.3334933897       29.9180996354      -13.9311153130  MEMB      194             0.0000000000
     22129       194  POPC      H3S           -22.7651390903       30.8884458924      -14.3181265650  MEMB      194             0.0000000000
     22130       194  POPC      C24           -22.7018089497       29.7510599250      -12.6069267767  MEMB      194             0.0000000000
     22131       194  POPC      H4R           -21.6051571335       29.9282581419      -12.6235569173  MEMB      194             0.0000000000
     22132       194  POPC      H4S           -22.8502739528       28.6859554487      -12.3279438336  MEMB      194             0.0000000000
     22133       194  POPC      C25           -23.5009577549       30.6530548533      -11.6542671252  MEMB      194             0.0000000000
     22134       194  POPC      H5R           -24.5937672040       30.6352618403      -11.8536964665  MEMB      194             0.0000000000
     22135       194  POPC      H5S           -23.2701744807       31.7397860298      -11.6629300817  MEMB      194             0.0000000000
     22136       194  POPC      C26           -23.2591453518       30.2386288857      -10.1498092970  MEMB      194             0.0000000000
     22137       194  POPC      H6R           -22.1813884843       29.9742425262      -10.0963202177  MEMB      194             0.0000000000
     22138       194  POPC      H6S           -23.7023695332       29.2298604315      -10.0074724493  MEMB      194             0.0000000000
     22139       194  POPC      C27           -23.6663171206       31.2416787017       -9.0888626228  MEMB      194             0.0000000000
     22140       194  POPC      H7R           -24.7672942437       31.1377303021       -8.9822557429  MEMB      194             0.0000000000
     22141       194  POPC      H7S           -23.5014790565       32.3109915520       -9.3412908731  MEMB      194             0.0000000000
     22142       194  POPC      C28           -22.9800258349       31.0593287416       -7.7796050067  MEMB      194             0.0000000000
     22143       194  POPC      H8R           -23.3131299715       30.1272602213       -7.2750151569  MEMB      194             0.0000000000
     22144       194  POPC      H8S           -23.1737845897       31.9580506019       -7.1558445077  MEMB      194             0.0000000000
     22145       194  POPC      C29           -21.4357323758       31.0594768407       -7.8637995232  MEMB      194             0.0000000000
     22146       194  POPC      H91           -20.9814888740       32.0155446742       -8.1631273531  MEMB      194             0.0000000000
     22147       194  POPC      C210          -20.6633281220       29.9975123865       -7.6375427804  MEMB      194             0.0000000000
     22148       194  POPC      H101          -19.5807577044       30.1134432964       -7.7943900777  MEMB      194             0.0000000000
     22149       194  POPC      C211          -21.0327079680       28.6031516393       -7.2313906325  MEMB      194             0.0000000000
     22150       194  POPC      H11R          -20.3139459149       27.8054850587       -7.5167517675  MEMB      194             0.0000000000
     22151       194  POPC      H11S          -22.0068916318       28.3478933545       -7.7005711020  MEMB      194             0.0000000000
     22152       194  POPC      C212          -21.2243876998       28.5156785845       -5.7414781604  MEMB      194             0.0000000000
     22153       194  POPC      H12R          -21.6980522258       27.5221266927       -5.5904230233  MEMB      194             0.0000000000
     22154       194  POPC      H12S          -21.9603233661       29.2554393178       -5.3600675474  MEMB      194             0.0000000000
     22155       194  POPC      C213          -19.9421177960       28.7318614746       -4.9147379817  MEMB      194             0.0000000000
     22156       194  POPC      H13R          -19.7091707129       29.7977917253       -4.7053355082  MEMB      194             0.0000000000
     22157       194  POPC      H13S          -18.9845341419       28.3281460536       -5.3076357681  MEMB      194             0.0000000000
     22158       194  POPC      C214          -20.1355026531       27.9390720680       -3.5635946963  MEMB      194             0.0000000000
     22159       194  POPC      H14R          -19.2053956261       28.0221002075       -2.9616576172  MEMB      194             0.0000000000
     22160       194  POPC      H14S          -20.2993782966       26.8796094143       -3.8551492637  MEMB      194             0.0000000000
     22161       194  POPC      C215          -21.3841100438       28.4113952614       -2.7708200880  MEMB      194             0.0000000000
     22162       194  POPC      H15R          -21.5368510116       27.7047359938       -1.9272416547  MEMB      194             0.0000000000
     22163       194  POPC      H15S          -22.2485536724       28.1422398338       -3.4147247584  MEMB      194             0.0000000000
     22164       194  POPC      C216          -21.3441252206       29.8215913785       -2.2147895374  MEMB      194             0.0000000000
     22165       194  POPC      H16R          -21.6030629606       30.5004182373       -3.0553053317  MEMB      194             0.0000000000
     22166       194  POPC      H16S          -20.2817881361       30.0383079901       -1.9723135284  MEMB      194             0.0000000000
     22167       194  POPC      C217          -22.3728178450       30.1650801234       -1.0987064188  MEMB      194             0.0000000000
     22168       194  POPC      H17R          -22.1930641552       29.5230899321       -0.2099680937  MEMB      194             0.0000000000
     22169       194  POPC      H17S          -23.3886014554       30.0398404159       -1.5309328028  MEMB      194             0.0000000000
     22170       194  POPC      C218          -22.2692224434       31.5508597153       -0.5204940841  MEMB      194             0.0000000000
     22171       194  POPC      H18R          -21.2318558628       31.8777189246       -0.2938800293  MEMB      194             0.0000000000
     22172       194  POPC      H18S          -22.8053163016       31.5476565845        0.4526009197  MEMB      194             0.0000000000
     22173       194  POPC      H18T          -22.6837568029       32.2458153244       -1.2817562286  MEMB      194             0.0000000000
     22174       194  POPC      C33           -29.4834133248       28.9536248096      -15.6184312693  MEMB      194             0.0000000000
     22175       194  POPC      H3X           -30.4411298581       28.5513241216      -16.0124536533  MEMB      194             0.0000000000
     22176       194  POPC      H3Y           -29.5330930550       29.8229062105      -14.9283569093  MEMB      194             0.0000000000
     22177       194  POPC      C34           -28.7627621442       27.7811147778      -14.8524864252  MEMB      194             0.0000000000
     22178       194  POPC      H4X           -28.2323214922       27.0671672810      -15.5182435613  MEMB      194             0.0000000000
     22179       194  POPC      H4Y           -29.4818767893       27.2509410952      -14.1920993258  MEMB      194             0.0000000000
     22180       194  POPC      C35           -27.7540650480       28.3575723172      -13.8822561941  MEMB      194             0.0000000000
     22181       194  POPC      H5X           -28.2401627775       29.2504748063      -13.4341985857  MEMB      194             0.0000000000
     22182       194  POPC      H5Y           -26.9305836535       28.6846575232      -14.5524906674  MEMB      194             0.0000000000
     22183       194  POPC      C36           -27.1815221406       27.3589331647      -12.9715008660  MEMB      194             0.0000000000
     22184       194  POPC      H6X           -26.6711842214       26.6286439339      -13.6352432157  MEMB      194             0.0000000000
     22185       194  POPC      H6Y           -28.0144621421       26.8387057881      -12.4519863361  MEMB      194             0.0000000000
     22186       194  POPC      C37           -26.2042863868       27.9707283514      -11.8799795466  MEMB      194             0.0000000000
     22187       194  POPC      H7X           -26.7076998266       28.8902829250      -11.5121276363  MEMB      194             0.0000000000
     22188       194  POPC      H7Y           -25.3300256909       28.4368417785      -12.3826997373  MEMB      194             0.0000000000
     22189       194  POPC      C38           -25.6950927587       26.9434293627      -10.8449548545  MEMB      194             0.0000000000
     22190       194  POPC      H8X           -24.7969131270       27.3481020687      -10.3313072054  MEMB      194             0.0000000000
     22191       194  POPC      H8Y           -25.2976403543       26.0145747619      -11.3071042366  MEMB      194             0.0000000000
     22192       194  POPC      C39           -26.7170632874       26.4855420143       -9.7527643338  MEMB      194             0.0000000000
     22193       194  POPC      H9X           -27.4234117296       25.6773664871      -10.0395489948  MEMB      194             0.0000000000
     22194       194  POPC      H9Y           -27.3421688184       27.2564066072       -9.2534330698  MEMB      194             0.0000000000
     22195       194  POPC      C310          -25.8751616559       25.8153538335       -8.5689303664  MEMB      194             0.0000000000
     22196       194  POPC      H10X          -25.0568073632       26.4850473081       -8.2281549043  MEMB      194             0.0000000000
     22197       194  POPC      H10Y          -25.4202818678       24.8907591989       -8.9842983135  MEMB      194             0.0000000000
     22198       194  POPC      C311          -26.8605215693       25.4084278616       -7.4765741766  MEMB      194             0.0000000000
     22199       194  POPC      H11X          -26.3244848434       24.7243310259       -6.7844778545  MEMB      194             0.0000000000
     22200       194  POPC      H11Y          -27.6485599478       24.7677391774       -7.9269463934  MEMB      194             0.0000000000
     22201       194  POPC      C312          -27.4515988958       26.6106364933       -6.6363236346  MEMB      194             0.0000000000
     22202       194  POPC      H12X          -28.5590310019       26.6978586427       -6.6187973800  MEMB      194             0.0000000000
     22203       194  POPC      H12Y          -27.1253642362       27.5114938103       -7.1987714692  MEMB      194             0.0000000000
     22204       194  POPC      C313          -26.7078667258       26.8137048476       -5.3396568165  MEMB      194             0.0000000000
     22205       194  POPC      H13X          -25.6261553785       26.6200253125       -5.5030880475  MEMB      194             0.0000000000
     22206       194  POPC      H13Y          -27.1177687857       26.0581242859       -4.6358108271  MEMB      194             0.0000000000
     22207       194  POPC      C314          -26.7436741870       28.2667472628       -4.7280097371  MEMB      194             0.0000000000
     22208       194  POPC      H14X          -27.8114890222       28.5093064867       -4.5402398114  MEMB      194             0.0000000000
     22209       194  POPC      H14Y          -26.4530117798       29.0232509002       -5.4879690881  MEMB      194             0.0000000000
     22210       194  POPC      C315          -25.9353737817       28.5037370578       -3.4463179252  MEMB      194             0.0000000000
     22211       194  POPC      H15X          -24.9075402131       28.0937779810       -3.5453776967  MEMB      194             0.0000000000
     22212       194  POPC      H15Y          -26.4775815947       28.0805950603       -2.5738029552  MEMB      194             0.0000000000
     22213       194  POPC      C316          -25.9881651785       30.0048659729       -3.1665465856  MEMB      194             0.0000000000
     22214       194  POPC      H16X          -26.9315400142       30.4341243919       -3.5666742616  MEMB      194             0.0000000000
     22215       194  POPC      H16Y          -25.2858877955       30.7010112365       -3.6730138783  MEMB      194             0.0000000000
     22216       194  POPC      H16Z          -25.9113122156       30.2595886633       -2.0878764215  MEMB      194             0.0000000000
     22217       195  POPC      N              38.8279369922        4.7548928738      -20.6260801052  MEMB      195             0.0000000000
     22218       195  POPC      C12            37.6577668571        4.3400718712      -19.6982717373  MEMB      195             0.0000000000
     22219       195  POPC      H12A           37.7365985167        3.2857856684      -19.4776674835  MEMB      195             0.0000000000
     22220       195  POPC      H12B           36.6843814169        4.4567338498      -20.1513839153  MEMB      195             0.0000000000
     22221       195  POPC      C13            40.1802440833        4.4328503443      -20.0099490721  MEMB      195             0.0000000000
     22222       195  POPC      H13A           40.9211654325        4.7500419008      -20.7288545507  MEMB      195             0.0000000000
     22223       195  POPC      H13B           40.1956427236        5.0687049010      -19.1371078278  MEMB      195             0.0000000000
     22224       195  POPC      H13C           40.2070716548        3.3858480236      -19.7463844026  MEMB      195             0.0000000000
     22225       195  POPC      C14            38.7663492528        3.8942815328      -21.9788459972  MEMB      195             0.0000000000
     22226       195  POPC      H14A           37.8824313186        4.0813659737      -22.5705285038  MEMB      195             0.0000000000
     22227       195  POPC      H14B           39.6387249817        4.1813020302      -22.5471589421  MEMB      195             0.0000000000
     22228       195  POPC      H14C           38.9176096170        2.8527622848      -21.7364463249  MEMB      195             0.0000000000
     22229       195  POPC      C15            38.7537451478        6.1433339287      -21.0667075502  MEMB      195             0.0000000000
     22230       195  POPC      H15A           39.0256497765        6.8355066587      -20.2835315531  MEMB      195             0.0000000000
     22231       195  POPC      H15B           37.7090364255        6.2727451629      -21.3080302626  MEMB      195             0.0000000000
     22232       195  POPC      H15C           39.2650485899        6.3130957835      -22.0027363209  MEMB      195             0.0000000000
     22233       195  POPC      C11            37.5856201668        5.1422449188      -18.3391810948  MEMB      195             0.0000000000
     22234       195  POPC      H11A           38.5853163216        5.1291185114      -17.8546644439  MEMB      195             0.0000000000
     22235       195  POPC      H11B           36.8072654020        4.6626589980      -17.7079267114  MEMB      195             0.0000000000
     22236       195  POPC      P              36.6961736678        7.3312603885      -17.4529122450  MEMB      195             0.0000000000
     22237       195  POPC      O13            35.5109440173        6.8036963442      -16.7649024960  MEMB      195             0.0000000000
     22238       195  POPC      O14            36.6135702089        8.7843178212      -17.7906836617  MEMB      195             0.0000000000
     22239       195  POPC      O12            37.0788754116        6.3978642649      -18.7036977172  MEMB      195             0.0000000000
     22240       195  POPC      O11            38.0110939938        7.2188058046      -16.5687683401  MEMB      195             0.0000000000
     22241       195  POPC      C1             39.1094687632        7.9334669252      -17.0533808288  MEMB      195             0.0000000000
     22242       195  POPC      HA             39.0959022880        8.9943504522      -16.7237400913  MEMB      195             0.0000000000
     22243       195  POPC      HB             39.1241633067        7.9145372648      -18.1641223440  MEMB      195             0.0000000000
     22244       195  POPC      C2             40.4106975569        7.4129104209      -16.4580841730  MEMB      195             0.0000000000
     22245       195  POPC      HS             41.3196545843        7.9374177507      -16.8227898750  MEMB      195             0.0000000000
     22246       195  POPC      O21            40.4669672750        6.0016162911      -16.6974215302  MEMB      195             0.0000000000
     22247       195  POPC      C21            41.6557695926        5.2984666975      -16.5457956996  MEMB      195             0.0000000000
     22248       195  POPC      O22            42.7460826776        5.7990435445      -16.5155454172  MEMB      195             0.0000000000
     22249       195  POPC      C22            41.3612616196        3.8109362904      -16.3202351181  MEMB      195             0.0000000000
     22250       195  POPC      H2R            42.3146064690        3.3846068288      -15.9411602006  MEMB      195             0.0000000000
     22251       195  POPC      H2S            40.9373401688        3.3725650790      -17.2489127419  MEMB      195             0.0000000000
     22252       195  POPC      C3             40.5173572495        7.6353861053      -14.9635373798  MEMB      195             0.0000000000
     22253       195  POPC      HX             40.4727890049        8.7262045493      -14.7575032226  MEMB      195             0.0000000000
     22254       195  POPC      HY             41.4039194623        7.1004738751      -14.5607997995  MEMB      195             0.0000000000
     22255       195  POPC      O31            39.3644031991        7.0323022827      -14.3345530418  MEMB      195             0.0000000000
     22256       195  POPC      C31            38.8372964445        7.4536979380      -13.1357572586  MEMB      195             0.0000000000
     22257       195  POPC      O32            39.4555388223        8.1295127042      -12.3060908568  MEMB      195             0.0000000000
     22258       195  POPC      C32            37.4299279708        6.7877153697      -12.8931009274  MEMB      195             0.0000000000
     22259       195  POPC      H2X            37.2227831830        6.0142980119      -13.6633201960  MEMB      195             0.0000000000
     22260       195  POPC      H2Y            36.6837118802        7.5740017936      -13.1364855957  MEMB      195             0.0000000000
     22261       195  POPC      C23            40.2323767847        3.7172038477      -15.2256424537  MEMB      195             0.0000000000
     22262       195  POPC      H3R            39.3021474842        3.9211192366      -15.7978429078  MEMB      195             0.0000000000
     22263       195  POPC      H3S            40.2987645892        4.4813805778      -14.4219338689  MEMB      195             0.0000000000
     22264       195  POPC      C24            39.7840938549        2.4186907917      -14.5421874663  MEMB      195             0.0000000000
     22265       195  POPC      H4R            39.5848213143        1.5783425525      -15.2410629743  MEMB      195             0.0000000000
     22266       195  POPC      H4S            38.8597218403        2.5074405278      -13.9322851894  MEMB      195             0.0000000000
     22267       195  POPC      C25            40.8748438926        1.8167238424      -13.6460067354  MEMB      195             0.0000000000
     22268       195  POPC      H5R            41.8236755338        1.4950800785      -14.1261999865  MEMB      195             0.0000000000
     22269       195  POPC      H5S            40.4947499167        0.8593601181      -13.2297086217  MEMB      195             0.0000000000
     22270       195  POPC      C26            41.3525692365        2.6991772097      -12.4235257273  MEMB      195             0.0000000000
     22271       195  POPC      H6R            41.4927012163        3.7624134430      -12.7137199783  MEMB      195             0.0000000000
     22272       195  POPC      H6S            42.3186248647        2.2298818497      -12.1392384290  MEMB      195             0.0000000000
     22273       195  POPC      C27            40.5648129517        2.6024402833      -11.1063618977  MEMB      195             0.0000000000
     22274       195  POPC      H7R            40.3938117162        1.5440709608      -10.8149276939  MEMB      195             0.0000000000
     22275       195  POPC      H7S            39.5758512345        3.0881942105      -11.2489067604  MEMB      195             0.0000000000
     22276       195  POPC      C28            41.2207401182        3.4235790512       -9.9276071815  MEMB      195             0.0000000000
     22277       195  POPC      H8R            41.9478279282        4.1876434221      -10.2767058706  MEMB      195             0.0000000000
     22278       195  POPC      H8S            41.8374443738        2.6654829141       -9.3991320801  MEMB      195             0.0000000000
     22279       195  POPC      C29            40.1430748154        4.0001371780       -9.0460382713  MEMB      195             0.0000000000
     22280       195  POPC      H91            39.5119252237        3.2874109384       -8.4949747820  MEMB      195             0.0000000000
     22281       195  POPC      C210           40.0289429300        5.2914262343       -8.6733151153  MEMB      195             0.0000000000
     22282       195  POPC      H101           39.2171617280        5.5572340165       -7.9802371152  MEMB      195             0.0000000000
     22283       195  POPC      C211           40.9543484442        6.3964144134       -9.0433568652  MEMB      195             0.0000000000
     22284       195  POPC      H11R           40.6804826758        6.6802987374      -10.0819753890  MEMB      195             0.0000000000
     22285       195  POPC      H11S           41.9847156386        5.9907743607       -9.1334714874  MEMB      195             0.0000000000
     22286       195  POPC      C212           40.8541797633        7.5682249137       -8.1122504125  MEMB      195             0.0000000000
     22287       195  POPC      H12R           39.9232514862        8.1126839579       -8.3791929662  MEMB      195             0.0000000000
     22288       195  POPC      H12S           41.7454669808        8.2088051990       -8.2842528287  MEMB      195             0.0000000000
     22289       195  POPC      C213           40.6081524757        7.2633534266       -6.5949998636  MEMB      195             0.0000000000
     22290       195  POPC      H13R           39.6667729386        6.6814569498       -6.4974186747  MEMB      195             0.0000000000
     22291       195  POPC      H13S           40.4713199123        8.2851925939       -6.1809434657  MEMB      195             0.0000000000
     22292       195  POPC      C214           41.7451930615        6.6434355097       -5.7938102506  MEMB      195             0.0000000000
     22293       195  POPC      H14R           42.6529426358        7.1779055773       -6.1468731410  MEMB      195             0.0000000000
     22294       195  POPC      H14S           41.8462838870        5.5616133184       -6.0256778684  MEMB      195             0.0000000000
     22295       195  POPC      C215           41.4487969828        6.7114261086       -4.2684406839  MEMB      195             0.0000000000
     22296       195  POPC      H15R           40.6440685663        6.0005089794       -3.9832562841  MEMB      195             0.0000000000
     22297       195  POPC      H15S           41.1631663209        7.7520491349       -4.0041687329  MEMB      195             0.0000000000
     22298       195  POPC      C216           42.5944755359        6.3024828920       -3.3806992577  MEMB      195             0.0000000000
     22299       195  POPC      H16R           43.4785547946        6.9645624592       -3.5005970516  MEMB      195             0.0000000000
     22300       195  POPC      H16S           42.8857595141        5.2730852844       -3.6803910773  MEMB      195             0.0000000000
     22301       195  POPC      C217           42.3961463642        6.1899554856       -1.8559651053  MEMB      195             0.0000000000
     22302       195  POPC      H17R           41.4308472366        5.6807136742       -1.6481393096  MEMB      195             0.0000000000
     22303       195  POPC      H17S           42.2502669973        7.2464349512       -1.5446909200  MEMB      195             0.0000000000
     22304       195  POPC      C218           43.5081544678        5.5022982443       -0.9976306891  MEMB      195             0.0000000000
     22305       195  POPC      H18R           43.4943066799        4.4342911102       -1.3033928005  MEMB      195             0.0000000000
     22306       195  POPC      H18S           43.2804096769        5.7915163709        0.0506088658  MEMB      195             0.0000000000
     22307       195  POPC      H18T           44.4761554984        5.9796551474       -1.2611168354  MEMB      195             0.0000000000
     22308       195  POPC      C33            37.4240846943        6.2256222631      -11.4856831342  MEMB      195             0.0000000000
     22309       195  POPC      H3X            38.4287447323        5.7785100598      -11.3273478769  MEMB      195             0.0000000000
     22310       195  POPC      H3Y            36.5781292259        5.5056188677      -11.4690874357  MEMB      195             0.0000000000
     22311       195  POPC      C34            36.9322728820        7.2407659788      -10.4342021036  MEMB      195             0.0000000000
     22312       195  POPC      H4X            37.1421817853        8.3178240626      -10.6079979388  MEMB      195             0.0000000000
     22313       195  POPC      H4Y            37.4274998706        6.9744650350       -9.4759982464  MEMB      195             0.0000000000
     22314       195  POPC      C35            35.3903693463        7.2311448755      -10.2449824430  MEMB      195             0.0000000000
     22315       195  POPC      H5X            35.1124751267        6.2102786460       -9.9059724622  MEMB      195             0.0000000000
     22316       195  POPC      H5Y            35.0147574451        7.2919678872      -11.2887914822  MEMB      195             0.0000000000
     22317       195  POPC      C36            34.7685437891        8.3165727670       -9.4639023839  MEMB      195             0.0000000000
     22318       195  POPC      H6X            33.6961682098        8.1197805831       -9.6774553410  MEMB      195             0.0000000000
     22319       195  POPC      H6Y            35.1026603251        9.3104551068       -9.8311697199  MEMB      195             0.0000000000
     22320       195  POPC      C37            34.8216780570        8.1952654890       -7.9890398081  MEMB      195             0.0000000000
     22321       195  POPC      H7X            34.6809882471        7.1255264692       -7.7241143938  MEMB      195             0.0000000000
     22322       195  POPC      H7Y            33.9792350001        8.7672631851       -7.5447091448  MEMB      195             0.0000000000
     22323       195  POPC      C38            36.0833076793        8.7977687767       -7.2070175089  MEMB      195             0.0000000000
     22324       195  POPC      H8X            36.1383002263        9.8578147313       -7.5350406349  MEMB      195             0.0000000000
     22325       195  POPC      H8Y            37.0042860820        8.2937178450       -7.5704081983  MEMB      195             0.0000000000
     22326       195  POPC      C39            36.0034402841        8.7131723216       -5.7740813494  MEMB      195             0.0000000000
     22327       195  POPC      H9X            35.6765154475        7.6799259406       -5.5294522810  MEMB      195             0.0000000000
     22328       195  POPC      H9Y            35.2266657880        9.3149256421       -5.2555883088  MEMB      195             0.0000000000
     22329       195  POPC      C310           37.4195650864        8.8264002902       -5.1376874269  MEMB      195             0.0000000000
     22330       195  POPC      H10X           37.8811849760        9.8134621340       -5.3543369626  MEMB      195             0.0000000000
     22331       195  POPC      H10Y           37.9422106748        8.0623663665       -5.7520283207  MEMB      195             0.0000000000
     22332       195  POPC      C311           37.4212110891        8.4969939180       -3.6116055555  MEMB      195             0.0000000000
     22333       195  POPC      H11X           36.5561569118        9.0230746757       -3.1541765401  MEMB      195             0.0000000000
     22334       195  POPC      H11Y           38.3822244444        8.9556013767       -3.2946620470  MEMB      195             0.0000000000
     22335       195  POPC      C312           37.1594757503        6.9926505391       -3.2645101293  MEMB      195             0.0000000000
     22336       195  POPC      H12X           37.8785540633        6.3751107700       -3.8440717964  MEMB      195             0.0000000000
     22337       195  POPC      H12Y           36.1093708243        6.9482344708       -3.6245481871  MEMB      195             0.0000000000
     22338       195  POPC      C313           37.3205372970        6.5894221139       -1.7456739644  MEMB      195             0.0000000000
     22339       195  POPC      H13X           36.5667718062        7.2146111411       -1.2209855581  MEMB      195             0.0000000000
     22340       195  POPC      H13Y           38.3515907647        6.7793964225       -1.3780319018  MEMB      195             0.0000000000
     22341       195  POPC      C314           36.9407797708        5.1177699837       -1.5446191336  MEMB      195             0.0000000000
     22342       195  POPC      H14X           37.6126554744        4.5444047482       -2.2185303452  MEMB      195             0.0000000000
     22343       195  POPC      H14Y           35.8949149532        5.0486773850       -1.9130144644  MEMB      195             0.0000000000
     22344       195  POPC      C315           36.9817884879        4.5013162525       -0.1823160033  MEMB      195             0.0000000000
     22345       195  POPC      H15X           36.6496802656        5.2839445077        0.5328889976  MEMB      195             0.0000000000
     22346       195  POPC      H15Y           38.0498927012        4.3104877609        0.0565557262  MEMB      195             0.0000000000
     22347       195  POPC      C316           36.2365132509        3.1769434922        0.0307453028  MEMB      195             0.0000000000
     22348       195  POPC      H16X           35.2311042411        3.4108683517        0.4415406679  MEMB      195             0.0000000000
     22349       195  POPC      H16Y           36.8487682867        2.5563939005        0.7194983227  MEMB      195             0.0000000000
     22350       195  POPC      H16Z           36.1390624569        2.6913850609       -0.9637687107  MEMB      195             0.0000000000
     22351       196  POPC      N              31.6117659953      -21.3880176021      -17.7009170706  MEMB      196             0.0000000000
     22352       196  POPC      C12            31.9122750503      -21.3790277608      -19.1851927166  MEMB      196             0.0000000000
     22353       196  POPC      H12A           32.4827989001      -22.2622890601      -19.4316720923  MEMB      196             0.0000000000
     22354       196  POPC      H12B           32.4994737481      -20.5305315786      -19.5040214203  MEMB      196             0.0000000000
     22355       196  POPC      C13            31.0121706247      -20.0236524876      -17.3351733338  MEMB      196             0.0000000000
     22356       196  POPC      H13A           31.7358361867      -19.2359052019      -17.4840444615  MEMB      196             0.0000000000
     22357       196  POPC      H13B           30.1817339134      -19.8130806544      -17.9927706796  MEMB      196             0.0000000000
     22358       196  POPC      H13C           30.7068962538      -20.1733222318      -16.3100848664  MEMB      196             0.0000000000
     22359       196  POPC      C14            30.6452180109      -22.4886018794      -17.3397024318  MEMB      196             0.0000000000
     22360       196  POPC      H14A           29.7902015869      -22.3787155509      -17.9902958681  MEMB      196             0.0000000000
     22361       196  POPC      H14B           31.0804901751      -23.4694272894      -17.4618487292  MEMB      196             0.0000000000
     22362       196  POPC      H14C           30.4982079396      -22.4439883561      -16.2706853288  MEMB      196             0.0000000000
     22363       196  POPC      C15            32.9218530277      -21.5141617791      -16.9457914081  MEMB      196             0.0000000000
     22364       196  POPC      H15A           33.6054489952      -20.7893752755      -17.3626622678  MEMB      196             0.0000000000
     22365       196  POPC      H15B           33.3741659760      -22.4491846260      -17.2416721151  MEMB      196             0.0000000000
     22366       196  POPC      H15C           32.7832190900      -21.5288695290      -15.8748272260  MEMB      196             0.0000000000
     22367       196  POPC      C11            30.6362162330      -21.4302837596      -20.0935136659  MEMB      196             0.0000000000
     22368       196  POPC      H11A           30.0959905903      -22.3337623427      -19.7382620371  MEMB      196             0.0000000000
     22369       196  POPC      H11B           30.8943126975      -21.5735014602      -21.1645860730  MEMB      196             0.0000000000
     22370       196  POPC      P              28.2161308041      -20.4127389151      -20.1427518334  MEMB      196             0.0000000000
     22371       196  POPC      O13            27.8245568909      -21.2359474066      -21.3151283467  MEMB      196             0.0000000000
     22372       196  POPC      O14            27.6400011694      -19.0794509554      -20.0897507538  MEMB      196             0.0000000000
     22373       196  POPC      O12            29.7881368710      -20.2429651148      -20.0312769468  MEMB      196             0.0000000000
     22374       196  POPC      O11            27.9541761606      -21.3590143388      -18.8208015098  MEMB      196             0.0000000000
     22375       196  POPC      C1             26.6374951127      -21.3358229813      -18.2727468430  MEMB      196             0.0000000000
     22376       196  POPC      HA             26.4106819969      -22.3876708817      -17.9961733753  MEMB      196             0.0000000000
     22377       196  POPC      HB             25.8011627242      -21.1430597873      -18.9782336715  MEMB      196             0.0000000000
     22378       196  POPC      C2             26.6392603631      -20.3897911104      -17.0556298536  MEMB      196             0.0000000000
     22379       196  POPC      HS             26.8218868196      -19.3451205826      -17.3867367888  MEMB      196             0.0000000000
     22380       196  POPC      O21            27.7119232923      -20.7003376361      -16.1498442038  MEMB      196             0.0000000000
     22381       196  POPC      C21            27.7880824709      -19.9453093807      -15.0250802622  MEMB      196             0.0000000000
     22382       196  POPC      O22            27.1541064420      -18.9503805795      -14.7794410012  MEMB      196             0.0000000000
     22383       196  POPC      C22            28.9672259269      -20.3490300136      -14.1928367577  MEMB      196             0.0000000000
     22384       196  POPC      H2R            29.7608393105      -20.6710000352      -14.9005333202  MEMB      196             0.0000000000
     22385       196  POPC      H2S            28.7269006140      -21.2859891908      -13.6463276350  MEMB      196             0.0000000000
     22386       196  POPC      C3             25.2071749693      -20.5329415851      -16.4808469656  MEMB      196             0.0000000000
     22387       196  POPC      HX             24.4551183273      -20.3275279838      -17.2723877508  MEMB      196             0.0000000000
     22388       196  POPC      HY             24.9399806573      -19.7317880412      -15.7589877919  MEMB      196             0.0000000000
     22389       196  POPC      O31            24.9660204304      -21.8649067194      -15.9312212658  MEMB      196             0.0000000000
     22390       196  POPC      C31            24.8526831541      -21.8676581598      -14.6210236363  MEMB      196             0.0000000000
     22391       196  POPC      O32            24.9611455135      -20.9438556527      -13.8484533199  MEMB      196             0.0000000000
     22392       196  POPC      C32            24.6297368925      -23.2496689345      -14.1613395500  MEMB      196             0.0000000000
     22393       196  POPC      H2X            24.3026327274      -23.8897968510      -15.0084285212  MEMB      196             0.0000000000
     22394       196  POPC      H2Y            23.7260766630      -23.2737648490      -13.5154768842  MEMB      196             0.0000000000
     22395       196  POPC      C23            29.3043557486      -19.2663056245      -13.0898120369  MEMB      196             0.0000000000
     22396       196  POPC      H3R            29.4731422966      -18.2521841396      -13.5109881858  MEMB      196             0.0000000000
     22397       196  POPC      H3S            30.2530043149      -19.6457912402      -12.6534893915  MEMB      196             0.0000000000
     22398       196  POPC      C24            28.3928156049      -18.9578412587      -11.8977480711  MEMB      196             0.0000000000
     22399       196  POPC      H4R            27.3801113731      -18.5901467891      -12.1689526052  MEMB      196             0.0000000000
     22400       196  POPC      H4S            28.8781260806      -18.0323577664      -11.5205546036  MEMB      196             0.0000000000
     22401       196  POPC      C25            28.2159988118      -20.0986159789      -10.8404879756  MEMB      196             0.0000000000
     22402       196  POPC      H5R            29.2008482681      -20.4492645910      -10.4644054879  MEMB      196             0.0000000000
     22403       196  POPC      H5S            27.7759542714      -20.9937835354      -11.3297288400  MEMB      196             0.0000000000
     22404       196  POPC      C26            27.2340976501      -19.6764288821       -9.7045290780  MEMB      196             0.0000000000
     22405       196  POPC      H6R            27.5421506306      -18.6333370149       -9.4778494355  MEMB      196             0.0000000000
     22406       196  POPC      H6S            27.4587334898      -20.3952080549       -8.8876962801  MEMB      196             0.0000000000
     22407       196  POPC      C27            25.7592309796      -19.7071939128      -10.1500143780  MEMB      196             0.0000000000
     22408       196  POPC      H7R            25.5569150224      -20.7919877917      -10.2789005958  MEMB      196             0.0000000000
     22409       196  POPC      H7S            25.5509420689      -19.1719915542      -11.1010640307  MEMB      196             0.0000000000
     22410       196  POPC      C28            24.7631245189      -19.1298882972       -9.0598979075  MEMB      196             0.0000000000
     22411       196  POPC      H8R            23.7160513150      -19.2208214360       -9.4200229446  MEMB      196             0.0000000000
     22412       196  POPC      H8S            25.0332816836      -18.0532545431       -9.1067542242  MEMB      196             0.0000000000
     22413       196  POPC      C29            24.8475632180      -19.8568100317       -7.7491129410  MEMB      196             0.0000000000
     22414       196  POPC      H91            24.6815330542      -20.9417018389       -7.8228950856  MEMB      196             0.0000000000
     22415       196  POPC      C210           25.0257578185      -19.3343587615       -6.5479665389  MEMB      196             0.0000000000
     22416       196  POPC      H101           25.0587982991      -20.1184160268       -5.7771466177  MEMB      196             0.0000000000
     22417       196  POPC      C211           25.1746680860      -17.8479124157       -6.1596030615  MEMB      196             0.0000000000
     22418       196  POPC      H11R           24.4816930497      -17.4338508110       -5.3962817194  MEMB      196             0.0000000000
     22419       196  POPC      H11S           25.0552018115      -17.1730317062       -7.0340082911  MEMB      196             0.0000000000
     22420       196  POPC      C212           26.6113136578      -17.5557273167       -5.5712678596  MEMB      196             0.0000000000
     22421       196  POPC      H12R           26.9526036306      -16.5003238526       -5.5082972698  MEMB      196             0.0000000000
     22422       196  POPC      H12S           27.2683958299      -17.8566217901       -6.4150848667  MEMB      196             0.0000000000
     22423       196  POPC      C213           27.0367691125      -18.3458017309       -4.3335863114  MEMB      196             0.0000000000
     22424       196  POPC      H13R           28.0587314298      -18.0068188264       -4.0597170362  MEMB      196             0.0000000000
     22425       196  POPC      H13S           27.2654813056      -19.3959626989       -4.6149654302  MEMB      196             0.0000000000
     22426       196  POPC      C214           26.2374215084      -18.1234045385       -3.0451504430  MEMB      196             0.0000000000
     22427       196  POPC      H14R           25.3193871336      -18.7042978615       -3.2777380366  MEMB      196             0.0000000000
     22428       196  POPC      H14S           25.8843272528      -17.1013073608       -2.7902722328  MEMB      196             0.0000000000
     22429       196  POPC      C215           26.9152118270      -18.6729911886       -1.7715340625  MEMB      196             0.0000000000
     22430       196  POPC      H15R           27.8687335259      -18.1549671951       -1.5332724051  MEMB      196             0.0000000000
     22431       196  POPC      H15S           26.9934382011      -19.7759723472       -1.8793949069  MEMB      196             0.0000000000
     22432       196  POPC      C216           26.1307715255      -18.3211013230       -0.4575249326  MEMB      196             0.0000000000
     22433       196  POPC      H16R           25.0611674324      -18.6085227986       -0.5450314030  MEMB      196             0.0000000000
     22434       196  POPC      H16S           26.2003199219      -17.2456707947       -0.1874644701  MEMB      196             0.0000000000
     22435       196  POPC      C217           26.6149941739      -19.2278691308        0.7806652202  MEMB      196             0.0000000000
     22436       196  POPC      H17R           27.7172080545      -19.1087067410        0.8530946913  MEMB      196             0.0000000000
     22437       196  POPC      H17S           26.3211304490      -20.2655071104        0.5136965572  MEMB      196             0.0000000000
     22438       196  POPC      C218           25.9007933562      -18.8994956647        2.1036295359  MEMB      196             0.0000000000
     22439       196  POPC      H18R           24.8025852878      -19.0636362211        2.0673260637  MEMB      196             0.0000000000
     22440       196  POPC      H18S           26.1801574029      -17.8359052353        2.2619063853  MEMB      196             0.0000000000
     22441       196  POPC      H18T           26.3417150955      -19.5066610028        2.9229335408  MEMB      196             0.0000000000
     22442       196  POPC      C33            25.8150815209      -23.8834412409      -13.3636983285  MEMB      196             0.0000000000
     22443       196  POPC      H3X            26.1425566989      -23.2090555501      -12.5437682472  MEMB      196             0.0000000000
     22444       196  POPC      H3Y            26.6697140129      -23.7865392562      -14.0669297062  MEMB      196             0.0000000000
     22445       196  POPC      C34            25.7559799649      -25.2612586421      -12.6689425955  MEMB      196             0.0000000000
     22446       196  POPC      H4X            25.9214031651      -26.0397273696      -13.4441475031  MEMB      196             0.0000000000
     22447       196  POPC      H4Y            24.6674152290      -25.3053372172      -12.4512165535  MEMB      196             0.0000000000
     22448       196  POPC      C35            26.5965763711      -25.4774415322      -11.3966403967  MEMB      196             0.0000000000
     22449       196  POPC      H5X            26.1937969983      -26.3165640235      -10.7900401615  MEMB      196             0.0000000000
     22450       196  POPC      H5Y            26.5097856238      -24.5074390232      -10.8619592123  MEMB      196             0.0000000000
     22451       196  POPC      C36            28.0588772966      -25.7166106863      -11.7143597212  MEMB      196             0.0000000000
     22452       196  POPC      H6X            28.6181859455      -24.8834419016      -12.1911454072  MEMB      196             0.0000000000
     22453       196  POPC      H6Y            28.1607971810      -26.6050655823      -12.3735873214  MEMB      196             0.0000000000
     22454       196  POPC      C37            29.0826737352      -26.0333756101      -10.5531529443  MEMB      196             0.0000000000
     22455       196  POPC      H7X            30.0115152580      -26.4190970949      -11.0251627302  MEMB      196             0.0000000000
     22456       196  POPC      H7Y            28.7814246882      -26.8587321287       -9.8731849496  MEMB      196             0.0000000000
     22457       196  POPC      C38            29.5400213186      -24.7501441092       -9.9059326897  MEMB      196             0.0000000000
     22458       196  POPC      H8X            29.7483109973      -23.8641164792      -10.5430286127  MEMB      196             0.0000000000
     22459       196  POPC      H8Y            30.4862031058      -25.0541571211       -9.4093073438  MEMB      196             0.0000000000
     22460       196  POPC      C39            28.6602178505      -24.5254517950       -8.6791696808  MEMB      196             0.0000000000
     22461       196  POPC      H9X            28.6711834904      -25.4497677910       -8.0628572567  MEMB      196             0.0000000000
     22462       196  POPC      H9Y            27.6421221338      -24.2346949411       -9.0157143327  MEMB      196             0.0000000000
     22463       196  POPC      C310           29.2742085681      -23.4660563596       -7.7546987853  MEMB      196             0.0000000000
     22464       196  POPC      H10X           30.0545644012      -22.8382529869       -8.2355615053  MEMB      196             0.0000000000
     22465       196  POPC      H10Y           29.8636515543      -23.8828722053       -6.9102216387  MEMB      196             0.0000000000
     22466       196  POPC      C311           28.2397704506      -22.5231310799       -7.1343589850  MEMB      196             0.0000000000
     22467       196  POPC      H11X           27.7116722353      -23.0435997085       -6.3069865532  MEMB      196             0.0000000000
     22468       196  POPC      H11Y           27.4622629645      -22.1997606878       -7.8590897115  MEMB      196             0.0000000000
     22469       196  POPC      C312           28.7591221047      -21.2925526799       -6.3885622518  MEMB      196             0.0000000000
     22470       196  POPC      H12X           27.8157261612      -20.7549023286       -6.1534949262  MEMB      196             0.0000000000
     22471       196  POPC      H12Y           29.2677722714      -20.7696421472       -7.2265133663  MEMB      196             0.0000000000
     22472       196  POPC      C313           29.7995509360      -21.2671522646       -5.1833425433  MEMB      196             0.0000000000
     22473       196  POPC      H13X           29.8934924962      -20.1793577591       -4.9779187101  MEMB      196             0.0000000000
     22474       196  POPC      H13Y           30.7977162493      -21.5829992233       -5.5551326768  MEMB      196             0.0000000000
     22475       196  POPC      C314           29.2895842639      -22.0689160808       -3.9977524341  MEMB      196             0.0000000000
     22476       196  POPC      H14X           29.0828434164      -23.1169886583       -4.3029123987  MEMB      196             0.0000000000
     22477       196  POPC      H14Y           28.3131022717      -21.6277059113       -3.7042606155  MEMB      196             0.0000000000
     22478       196  POPC      C315           30.2756464385      -22.0995507767       -2.8292700302  MEMB      196             0.0000000000
     22479       196  POPC      H15X           31.2458775945      -22.5411509557       -3.1422585154  MEMB      196             0.0000000000
     22480       196  POPC      H15Y           29.7284130536      -22.8389647646       -2.2062732133  MEMB      196             0.0000000000
     22481       196  POPC      C316           30.5361870175      -20.8357726611       -2.0019355614  MEMB      196             0.0000000000
     22482       196  POPC      H16X           29.6897663888      -20.1168883587       -2.0350828631  MEMB      196             0.0000000000
     22483       196  POPC      H16Y           31.3896804237      -20.2629534623       -2.4235349697  MEMB      196             0.0000000000
     22484       196  POPC      H16Z           30.8974449999      -21.2216034614       -1.0247207885  MEMB      196             0.0000000000
     22485       197  POPC      N              10.7304137031       37.6125447507      -20.6439471168  MEMB      197             0.0000000000
     22486       197  POPC      C12            10.1959957041       37.9563349051      -19.2669039104  MEMB      197             0.0000000000
     22487       197  POPC      H12A            9.3259107885       37.3327702882      -19.1236578196  MEMB      197             0.0000000000
     22488       197  POPC      H12B            9.8460586082       38.9728431686      -19.3701268606  MEMB      197             0.0000000000
     22489       197  POPC      C13            11.8312923874       38.5730292222      -20.9749390150  MEMB      197             0.0000000000
     22490       197  POPC      H13A           12.7436650207       38.1645734058      -20.5661114541  MEMB      197             0.0000000000
     22491       197  POPC      H13B           12.0394290127       38.7841225012      -22.0134564667  MEMB      197             0.0000000000
     22492       197  POPC      H13C           11.5772277920       39.5056325530      -20.4931691817  MEMB      197             0.0000000000
     22493       197  POPC      C14            11.2976102543       36.1788236423      -20.8743486531  MEMB      197             0.0000000000
     22494       197  POPC      H14A           11.8536737675       35.8570578727      -20.0062125531  MEMB      197             0.0000000000
     22495       197  POPC      H14B           10.4202630593       35.5569521365      -20.7746607235  MEMB      197             0.0000000000
     22496       197  POPC      H14C           11.7750398252       36.0610691980      -21.8359071516  MEMB      197             0.0000000000
     22497       197  POPC      C15             9.6180103996       37.8818410806      -21.6202813498  MEMB      197             0.0000000000
     22498       197  POPC      H15A            8.8165335931       37.1663137462      -21.5104836716  MEMB      197             0.0000000000
     22499       197  POPC      H15B           10.0954026589       37.8712493553      -22.5889837762  MEMB      197             0.0000000000
     22500       197  POPC      H15C            9.2914944856       38.8980527769      -21.4556567808  MEMB      197             0.0000000000
     22501       197  POPC      C11            11.0132883253       37.9723721859      -17.9667470092  MEMB      197             0.0000000000
     22502       197  POPC      H11A           11.2898484649       36.9046922690      -17.8329735464  MEMB      197             0.0000000000
     22503       197  POPC      H11B           10.2728074758       38.3308702515      -17.2200956381  MEMB      197             0.0000000000
     22504       197  POPC      P              12.0586060417       40.2862480104      -17.5926052507  MEMB      197             0.0000000000
     22505       197  POPC      O13            10.6985654929       40.8684485821      -17.7178485799  MEMB      197             0.0000000000
     22506       197  POPC      O14            13.1364054188       41.0632536499      -18.2114856615  MEMB      197             0.0000000000
     22507       197  POPC      O12            12.1891566273       38.7855828705      -18.0872112047  MEMB      197             0.0000000000
     22508       197  POPC      O11            12.2559373495       40.0153177833      -16.0436822486  MEMB      197             0.0000000000
     22509       197  POPC      C1             13.6352546433       39.7960278281      -15.6456717318  MEMB      197             0.0000000000
     22510       197  POPC      HA             14.2364075568       40.7250814786      -15.7446441362  MEMB      197             0.0000000000
     22511       197  POPC      HB             14.0596791526       38.9921866740      -16.2844392537  MEMB      197             0.0000000000
     22512       197  POPC      C2             13.7652295952       39.3509137731      -14.1954980308  MEMB      197             0.0000000000
     22513       197  POPC      HS             14.8024106462       38.9919275379      -14.0231463157  MEMB      197             0.0000000000
     22514       197  POPC      O21            12.8157742251       38.3183884048      -13.8822657182  MEMB      197             0.0000000000
     22515       197  POPC      C21            12.6259174941       37.2183141146      -14.6458444623  MEMB      197             0.0000000000
     22516       197  POPC      O22            13.2923430166       36.9464830131      -15.5989684824  MEMB      197             0.0000000000
     22517       197  POPC      C22            11.5104382819       36.2846417743      -14.1196624329  MEMB      197             0.0000000000
     22518       197  POPC      H2R            11.7916275645       35.2100925975      -14.1441038319  MEMB      197             0.0000000000
     22519       197  POPC      H2S            10.7555379524       36.3258159391      -14.9337575717  MEMB      197             0.0000000000
     22520       197  POPC      C3             13.5387706690       40.5297807282      -13.2274301158  MEMB      197             0.0000000000
     22521       197  POPC      HX             12.4862599718       40.8721315573      -13.3240644190  MEMB      197             0.0000000000
     22522       197  POPC      HY             14.3059584125       41.2941225869      -13.4754739354  MEMB      197             0.0000000000
     22523       197  POPC      O31            13.9393316620       40.0635524149      -11.9249974155  MEMB      197             0.0000000000
     22524       197  POPC      C31            13.0380684236       39.7963481423      -10.9711145060  MEMB      197             0.0000000000
     22525       197  POPC      O32            11.8701657363       39.9672708599      -11.1104549959  MEMB      197             0.0000000000
     22526       197  POPC      C32            13.7980787957       39.3799843058       -9.6903357343  MEMB      197             0.0000000000
     22527       197  POPC      H2X            14.5726890570       38.6842544884      -10.0779700561  MEMB      197             0.0000000000
     22528       197  POPC      H2Y            13.2870399575       38.6750408134       -9.0002524418  MEMB      197             0.0000000000
     22529       197  POPC      C23            11.0272030226       36.6793785017      -12.6645442606  MEMB      197             0.0000000000
     22530       197  POPC      H3R            10.0203424061       36.2220445350      -12.5577804111  MEMB      197             0.0000000000
     22531       197  POPC      H3S            10.9077306785       37.7738272739      -12.5154494815  MEMB      197             0.0000000000
     22532       197  POPC      C24            11.9804478326       36.2925023810      -11.5325778656  MEMB      197             0.0000000000
     22533       197  POPC      H4R            12.9965802540       36.7311193407      -11.6295870205  MEMB      197             0.0000000000
     22534       197  POPC      H4S            12.0826047273       35.2052496616      -11.7369458547  MEMB      197             0.0000000000
     22535       197  POPC      C25            11.4778111403       36.5584654265      -10.1196334286  MEMB      197             0.0000000000
     22536       197  POPC      H5R            10.4442007010       36.1533276716      -10.0768082447  MEMB      197             0.0000000000
     22537       197  POPC      H5S            11.5015326869       37.6684848151      -10.1598218696  MEMB      197             0.0000000000
     22538       197  POPC      C26            12.2136955783       35.7821302721       -9.0527459772  MEMB      197             0.0000000000
     22539       197  POPC      H6R            13.3189887857       35.8240382001       -9.1571102058  MEMB      197             0.0000000000
     22540       197  POPC      H6S            12.0622509291       34.6904797698       -9.1930488788  MEMB      197             0.0000000000
     22541       197  POPC      C27            11.7268771267       35.9614765956       -7.5671970142  MEMB      197             0.0000000000
     22542       197  POPC      H7R            12.0052395068       37.0219502740       -7.3876665723  MEMB      197             0.0000000000
     22543       197  POPC      H7S            12.3995117321       35.5318611771       -6.7943363878  MEMB      197             0.0000000000
     22544       197  POPC      C28            10.2444130505       35.5446405189       -7.2063809532  MEMB      197             0.0000000000
     22545       197  POPC      H8R            10.1414443901       35.5796190061       -6.1007158935  MEMB      197             0.0000000000
     22546       197  POPC      H8S            10.2143848774       34.4605840594       -7.4477124567  MEMB      197             0.0000000000
     22547       197  POPC      C29             9.0423447210       36.3141127155       -7.8569557106  MEMB      197             0.0000000000
     22548       197  POPC      H91             8.4537125996       35.6770763907       -8.5334877301  MEMB      197             0.0000000000
     22549       197  POPC      C210            8.7274440889       37.6446614374       -7.6654108307  MEMB      197             0.0000000000
     22550       197  POPC      H101            7.9389101433       38.0666173368       -8.3058540593  MEMB      197             0.0000000000
     22551       197  POPC      C211            9.4655571835       38.5336115982       -6.7725249991  MEMB      197             0.0000000000
     22552       197  POPC      H11R           10.0651066118       39.3172682995       -7.2831557502  MEMB      197             0.0000000000
     22553       197  POPC      H11S           10.1857179209       37.9577215218       -6.1528153893  MEMB      197             0.0000000000
     22554       197  POPC      C212            8.6261427112       39.1636735645       -5.6259438205  MEMB      197             0.0000000000
     22555       197  POPC      H12R            7.9276787439       39.8598704841       -6.1375876732  MEMB      197             0.0000000000
     22556       197  POPC      H12S            9.3049851028       39.8272987758       -5.0487997100  MEMB      197             0.0000000000
     22557       197  POPC      C213            7.9730029751       38.1589686280       -4.7286963444  MEMB      197             0.0000000000
     22558       197  POPC      H13R            8.6383739596       37.2694510980       -4.7096985898  MEMB      197             0.0000000000
     22559       197  POPC      H13S            6.9379165295       37.8900616085       -5.0297051203  MEMB      197             0.0000000000
     22560       197  POPC      C214            7.8099561866       38.5800908439       -3.2821329025  MEMB      197             0.0000000000
     22561       197  POPC      H14R            7.1407425763       37.8480419249       -2.7815545197  MEMB      197             0.0000000000
     22562       197  POPC      H14S            7.3730684952       39.6001669850       -3.2283297155  MEMB      197             0.0000000000
     22563       197  POPC      C215            9.1094090914       38.4551279254       -2.4801241658  MEMB      197             0.0000000000
     22564       197  POPC      H15R            9.8634449760       39.1665699122       -2.8796259520  MEMB      197             0.0000000000
     22565       197  POPC      H15S            9.6761870228       37.5151393559       -2.6518953692  MEMB      197             0.0000000000
     22566       197  POPC      C216            8.8141314518       38.6727798356       -0.9609178817  MEMB      197             0.0000000000
     22567       197  POPC      H16R            9.8187900678       38.7506711864       -0.4930340009  MEMB      197             0.0000000000
     22568       197  POPC      H16S            8.2382222976       37.7660706148       -0.6771438139  MEMB      197             0.0000000000
     22569       197  POPC      C217            7.9771720636       39.9269291475       -0.6615085632  MEMB      197             0.0000000000
     22570       197  POPC      H17R            6.9450021240       39.9873568138       -1.0680730875  MEMB      197             0.0000000000
     22571       197  POPC      H17S            8.6023314814       40.7735202315       -1.0175706625  MEMB      197             0.0000000000
     22572       197  POPC      C218            7.7986684943       40.1551723158        0.8331072243  MEMB      197             0.0000000000
     22573       197  POPC      H18R            8.8031984356       40.2110960368        1.3043953575  MEMB      197             0.0000000000
     22574       197  POPC      H18S            7.3727767918       39.2454485978        1.3078070010  MEMB      197             0.0000000000
     22575       197  POPC      H18T            7.3018359349       41.1291225755        1.0303383490  MEMB      197             0.0000000000
     22576       197  POPC      C33            14.3378147947       40.4920465661       -8.8552125595  MEMB      197             0.0000000000
     22577       197  POPC      H3X            13.5331540716       41.2526084355       -8.7636283665  MEMB      197             0.0000000000
     22578       197  POPC      H3Y            15.1640556670       41.0450319613       -9.3510494121  MEMB      197             0.0000000000
     22579       197  POPC      C34            15.0499799389       40.1096285329       -7.4664014971  MEMB      197             0.0000000000
     22580       197  POPC      H4X            15.4468187496       41.0388410411       -7.0044443891  MEMB      197             0.0000000000
     22581       197  POPC      H4Y            15.9757171322       39.5177473342       -7.6307440519  MEMB      197             0.0000000000
     22582       197  POPC      C35            14.0375535283       39.3976858691       -6.5458830707  MEMB      197             0.0000000000
     22583       197  POPC      H5X            13.8636342590       38.3204875017       -6.7549685059  MEMB      197             0.0000000000
     22584       197  POPC      H5Y            13.0972165272       39.9502653553       -6.7574089857  MEMB      197             0.0000000000
     22585       197  POPC      C36            14.3624895617       39.5389035292       -5.0531954385  MEMB      197             0.0000000000
     22586       197  POPC      H6X            14.6747273707       40.5620707499       -4.7532668685  MEMB      197             0.0000000000
     22587       197  POPC      H6Y            15.1940694583       38.8441374736       -4.8080512168  MEMB      197             0.0000000000
     22588       197  POPC      C37            13.1838915686       39.2069462092       -4.0890451061  MEMB      197             0.0000000000
     22589       197  POPC      H7X            12.1892492766       39.5764017341       -4.4184541950  MEMB      197             0.0000000000
     22590       197  POPC      H7Y            13.3633659103       39.4928594353       -3.0305723930  MEMB      197             0.0000000000
     22591       197  POPC      C38            12.7614841248       37.7654355877       -4.2183205734  MEMB      197             0.0000000000
     22592       197  POPC      H8X            12.6418860320       37.5367115014       -5.2989226308  MEMB      197             0.0000000000
     22593       197  POPC      H8Y            11.8051290184       37.6936185098       -3.6574739454  MEMB      197             0.0000000000
     22594       197  POPC      C39            13.7513058857       36.8026791687       -3.6085904279  MEMB      197             0.0000000000
     22595       197  POPC      H9X            14.6648215379       36.7790449924       -4.2404546981  MEMB      197             0.0000000000
     22596       197  POPC      H9Y            13.2939661096       35.8049966851       -3.7811913498  MEMB      197             0.0000000000
     22597       197  POPC      C310           14.2341219481       37.0611925809       -2.1506753117  MEMB      197             0.0000000000
     22598       197  POPC      H10X           14.8666478008       37.9724647013       -2.0889041545  MEMB      197             0.0000000000
     22599       197  POPC      H10Y           14.8743954574       36.1944198195       -1.8803493854  MEMB      197             0.0000000000
     22600       197  POPC      C311           13.1076240175       37.2517298735       -1.0988590588  MEMB      197             0.0000000000
     22601       197  POPC      H11X           12.4306990528       36.3847852370       -0.9423331118  MEMB      197             0.0000000000
     22602       197  POPC      H11Y           12.5022674406       38.1290397411       -1.4122156823  MEMB      197             0.0000000000
     22603       197  POPC      C312           13.5666129099       37.4563253659        0.3639479369  MEMB      197             0.0000000000
     22604       197  POPC      H12X           14.6666223604       37.3968899846        0.5080580148  MEMB      197             0.0000000000
     22605       197  POPC      H12Y           13.0595375884       36.6959753069        0.9956639338  MEMB      197             0.0000000000
     22606       197  POPC      C313           13.2113889466       38.8265895769        0.9331421574  MEMB      197             0.0000000000
     22607       197  POPC      H13X           13.5165988684       38.8916900801        1.9994102105  MEMB      197             0.0000000000
     22608       197  POPC      H13Y           12.1087362187       38.7643654524        0.8122866484  MEMB      197             0.0000000000
     22609       197  POPC      C314           13.7719919784       40.0844130602        0.1626183115  MEMB      197             0.0000000000
     22610       197  POPC      H14X           13.3601687214       41.0151352599        0.6081269149  MEMB      197             0.0000000000
     22611       197  POPC      H14Y           13.4775030061       40.0179197454       -0.9065752968  MEMB      197             0.0000000000
     22612       197  POPC      C315           15.3246482180       40.1819656913        0.2887415529  MEMB      197             0.0000000000
     22613       197  POPC      H15X           15.8621463066       39.4358120897       -0.3346933676  MEMB      197             0.0000000000
     22614       197  POPC      H15Y           15.4651187060       40.0515067945        1.3830759222  MEMB      197             0.0000000000
     22615       197  POPC      C316           15.9850144181       41.4681962168       -0.0831962139  MEMB      197             0.0000000000
     22616       197  POPC      H16X           17.0570707374       41.4434334031        0.2073256475  MEMB      197             0.0000000000
     22617       197  POPC      H16Y           15.5252342381       42.3854663558        0.3428760550  MEMB      197             0.0000000000
     22618       197  POPC      H16Z           16.1228287131       41.6002629252       -1.1776757177  MEMB      197             0.0000000000
     22619       198  POPC      N              24.0237727533      -24.0271550733      -19.1917063438  MEMB      198             0.0000000000
     22620       198  POPC      C12            23.2597101348      -24.7568503538      -18.1302695512  MEMB      198             0.0000000000
     22621       198  POPC      H12A           22.2126713189      -24.7326814067      -18.3939460214  MEMB      198             0.0000000000
     22622       198  POPC      H12B           23.4832161974      -24.1943850847      -17.2357989246  MEMB      198             0.0000000000
     22623       198  POPC      C13            25.5343923283      -24.1056852085      -18.8871936404  MEMB      198             0.0000000000
     22624       198  POPC      H13A           25.6888018527      -23.5734650738      -17.9602096017  MEMB      198             0.0000000000
     22625       198  POPC      H13B           25.8171143620      -25.1326652329      -18.7089230589  MEMB      198             0.0000000000
     22626       198  POPC      H13C           26.0796989504      -23.7301876400      -19.7404476142  MEMB      198             0.0000000000
     22627       198  POPC      C14            23.8449845231      -24.6935534761      -20.5327955438  MEMB      198             0.0000000000
     22628       198  POPC      H14A           24.4238775577      -25.6007375878      -20.6238984190  MEMB      198             0.0000000000
     22629       198  POPC      H14B           22.8138334834      -24.8860296261      -20.7898569928  MEMB      198             0.0000000000
     22630       198  POPC      H14C           24.1770536310      -23.9477901190      -21.2398790277  MEMB      198             0.0000000000
     22631       198  POPC      C15            23.5622583377      -22.6042773753      -19.2889643634  MEMB      198             0.0000000000
     22632       198  POPC      H15A           24.0577646693      -21.9703276876      -20.0093680517  MEMB      198             0.0000000000
     22633       198  POPC      H15B           23.7253125921      -22.1861908087      -18.3066116491  MEMB      198             0.0000000000
     22634       198  POPC      H15C           22.4927355031      -22.5910167989      -19.4384478821  MEMB      198             0.0000000000
     22635       198  POPC      C11            23.5708952509      -26.2467416969      -17.8125021524  MEMB      198             0.0000000000
     22636       198  POPC      H11A           22.8159849398      -26.5518415744      -17.0566281755  MEMB      198             0.0000000000
     22637       198  POPC      H11B           24.5202581196      -26.2502602737      -17.2354243699  MEMB      198             0.0000000000
     22638       198  POPC      P              24.6311119003      -28.3437176822      -19.0786761856  MEMB      198             0.0000000000
     22639       198  POPC      O13            25.8973497100      -28.1999127788      -18.3489015362  MEMB      198             0.0000000000
     22640       198  POPC      O14            24.7660911681      -28.8058269293      -20.4847200911  MEMB      198             0.0000000000
     22641       198  POPC      O12            23.6498606233      -27.1273079940      -18.9472677524  MEMB      198             0.0000000000
     22642       198  POPC      O11            23.8560517430      -29.5001241261      -18.2970027988  MEMB      198             0.0000000000
     22643       198  POPC      C1             22.6274680872      -30.0584670763      -18.8531002561  MEMB      198             0.0000000000
     22644       198  POPC      HA             22.9931168599      -30.9421278471      -19.4185786048  MEMB      198             0.0000000000
     22645       198  POPC      HB             22.2180416571      -29.4299796237      -19.6726700088  MEMB      198             0.0000000000
     22646       198  POPC      C2             21.5102989287      -30.1930355946      -17.8323688832  MEMB      198             0.0000000000
     22647       198  POPC      HS             20.5056151719      -30.4980368206      -18.1955564582  MEMB      198             0.0000000000
     22648       198  POPC      O21            21.4482167628      -28.8958579008      -17.2481941744  MEMB      198             0.0000000000
     22649       198  POPC      C21            20.2363704594      -28.5965965601      -16.8158779145  MEMB      198             0.0000000000
     22650       198  POPC      O22            19.1778585855      -29.1917142801      -16.9345012859  MEMB      198             0.0000000000
     22651       198  POPC      C22            20.2465979364      -27.2331278835      -16.1053140974  MEMB      198             0.0000000000
     22652       198  POPC      H2R            19.2600760121      -26.7877441171      -15.8548564390  MEMB      198             0.0000000000
     22653       198  POPC      H2S            20.6871569679      -26.4540371716      -16.7635283732  MEMB      198             0.0000000000
     22654       198  POPC      C3             21.7451190166      -31.2024973029      -16.6352183256  MEMB      198             0.0000000000
     22655       198  POPC      HX             21.7609742754      -32.2203150218      -17.0803218391  MEMB      198             0.0000000000
     22656       198  POPC      HY             20.8570329419      -31.0493781300      -15.9854652386  MEMB      198             0.0000000000
     22657       198  POPC      O31            23.0490654433      -31.0739981127      -15.9529470841  MEMB      198             0.0000000000
     22658       198  POPC      C31            22.9240313237      -30.5492354494      -14.7262478152  MEMB      198             0.0000000000
     22659       198  POPC      O32            21.9035700661      -30.2692206695      -14.1227634381  MEMB      198             0.0000000000
     22660       198  POPC      C32            24.3333714451      -30.1482467525      -14.2456618458  MEMB      198             0.0000000000
     22661       198  POPC      H2X            24.9102051857      -29.4930123806      -14.9328675021  MEMB      198             0.0000000000
     22662       198  POPC      H2Y            24.9344958394      -31.0811107814      -14.1933604991  MEMB      198             0.0000000000
     22663       198  POPC      C23            21.0219892612      -27.4076453621      -14.8058313180  MEMB      198             0.0000000000
     22664       198  POPC      H3R            22.0173797676      -27.8388183737      -15.0458491544  MEMB      198             0.0000000000
     22665       198  POPC      H3S            20.5784002259      -28.1606187323      -14.1198426339  MEMB      198             0.0000000000
     22666       198  POPC      C24            21.0743310178      -26.0766963013      -14.0900711305  MEMB      198             0.0000000000
     22667       198  POPC      H4R            20.0930375984      -25.5561070179      -14.1093406797  MEMB      198             0.0000000000
     22668       198  POPC      H4S            21.8028621899      -25.4930719761      -14.6925209716  MEMB      198             0.0000000000
     22669       198  POPC      C25            21.5648833330      -26.2075900474      -12.5752330229  MEMB      198             0.0000000000
     22670       198  POPC      H5R            22.6262175117      -26.5330091880      -12.5305873096  MEMB      198             0.0000000000
     22671       198  POPC      H5S            20.9187807077      -26.8889138518      -11.9813729722  MEMB      198             0.0000000000
     22672       198  POPC      C26            21.4706192986      -24.8511775129      -11.8017405308  MEMB      198             0.0000000000
     22673       198  POPC      H6R            20.4017583277      -24.5498084087      -11.8338935600  MEMB      198             0.0000000000
     22674       198  POPC      H6S            22.1113194235      -24.0517376054      -12.2315317873  MEMB      198             0.0000000000
     22675       198  POPC      C27            21.8868402203      -25.0897520461      -10.4149974154  MEMB      198             0.0000000000
     22676       198  POPC      H7R            22.9833995760      -25.2643388526      -10.4523858433  MEMB      198             0.0000000000
     22677       198  POPC      H7S            21.3617036930      -25.9356908222       -9.9221083637  MEMB      198             0.0000000000
     22678       198  POPC      C28            21.7671400374      -23.8204509120       -9.5899790325  MEMB      198             0.0000000000
     22679       198  POPC      H8R            21.9952406317      -22.8671265164      -10.1129162842  MEMB      198             0.0000000000
     22680       198  POPC      H8S            22.5562817184      -23.9861901428       -8.8257095880  MEMB      198             0.0000000000
     22681       198  POPC      C29            20.4014492141      -23.5923417587       -8.8933421475  MEMB      198             0.0000000000
     22682       198  POPC      H91            19.5554762274      -23.4452435451       -9.5808684404  MEMB      198             0.0000000000
     22683       198  POPC      C210           20.1938559766      -23.5716334190       -7.5399728474  MEMB      198             0.0000000000
     22684       198  POPC      H101           19.1598050342      -23.3300134602       -7.2529915398  MEMB      198             0.0000000000
     22685       198  POPC      C211           21.1598464179      -23.7596569420       -6.3764551713  MEMB      198             0.0000000000
     22686       198  POPC      H11R           21.4537406094      -22.7778062606       -5.9476007817  MEMB      198             0.0000000000
     22687       198  POPC      H11S           22.1156250051      -24.2445790695       -6.6691307460  MEMB      198             0.0000000000
     22688       198  POPC      C212           20.5961587957      -24.6714364551       -5.1486153106  MEMB      198             0.0000000000
     22689       198  POPC      H12R           19.5414584543      -24.3377999785       -5.0455877469  MEMB      198             0.0000000000
     22690       198  POPC      H12S           21.2139402613      -24.3335409483       -4.2892593575  MEMB      198             0.0000000000
     22691       198  POPC      C213           20.6004810761      -26.1853248363       -5.3368825548  MEMB      198             0.0000000000
     22692       198  POPC      H13R           21.4759345393      -26.3202630856       -6.0074752472  MEMB      198             0.0000000000
     22693       198  POPC      H13S           19.7072467141      -26.5211166993       -5.9058265207  MEMB      198             0.0000000000
     22694       198  POPC      C214           20.6154137168      -27.0402771031       -4.0803821713  MEMB      198             0.0000000000
     22695       198  POPC      H14R           21.6414902974      -27.0443447260       -3.6543877267  MEMB      198             0.0000000000
     22696       198  POPC      H14S           20.2634513591      -28.0713871933       -4.2977660103  MEMB      198             0.0000000000
     22697       198  POPC      C215           19.7058367608      -26.5313166557       -2.9165709180  MEMB      198             0.0000000000
     22698       198  POPC      H15R           18.6698253011      -26.6038142592       -3.3112169111  MEMB      198             0.0000000000
     22699       198  POPC      H15S           20.0604686761      -25.5076447704       -2.6702928290  MEMB      198             0.0000000000
     22700       198  POPC      C216           19.9686802177      -27.5129393296       -1.7022950766  MEMB      198             0.0000000000
     22701       198  POPC      H16R           21.0197995668      -27.8096996528       -1.9057707074  MEMB      198             0.0000000000
     22702       198  POPC      H16S           19.3652571074      -28.4298656328       -1.8738990332  MEMB      198             0.0000000000
     22703       198  POPC      C217           19.8207652590      -26.8840464008       -0.3213423568  MEMB      198             0.0000000000
     22704       198  POPC      H17R           18.7343067649      -26.6762793070       -0.2176027837  MEMB      198             0.0000000000
     22705       198  POPC      H17S           20.4247736460      -25.9668776856       -0.1531273024  MEMB      198             0.0000000000
     22706       198  POPC      C218           20.2769821490      -27.8810923593        0.7089653400  MEMB      198             0.0000000000
     22707       198  POPC      H18R           19.6521420044      -28.7953888409        0.6197614351  MEMB      198             0.0000000000
     22708       198  POPC      H18S           20.0229866410      -27.3895788142        1.6724066135  MEMB      198             0.0000000000
     22709       198  POPC      H18T           21.3423752003      -28.1071561568        0.4895256692  MEMB      198             0.0000000000
     22710       198  POPC      C33            24.3244567537      -29.5611141655      -12.8488008031  MEMB      198             0.0000000000
     22711       198  POPC      H3X            23.5873009556      -30.0927685348      -12.2098437593  MEMB      198             0.0000000000
     22712       198  POPC      H3Y            24.1074083134      -28.4803219253      -12.9870001516  MEMB      198             0.0000000000
     22713       198  POPC      C34            25.7572016409      -29.5492640623      -12.1569696412  MEMB      198             0.0000000000
     22714       198  POPC      H4X            26.4508029409      -29.1869328634      -12.9456104772  MEMB      198             0.0000000000
     22715       198  POPC      H4Y            26.0320303316      -30.5700209224      -11.8151417407  MEMB      198             0.0000000000
     22716       198  POPC      C35            25.7294864853      -28.6862578499      -10.9643526984  MEMB      198             0.0000000000
     22717       198  POPC      H5X            24.8641145016      -28.9580390800      -10.3228016915  MEMB      198             0.0000000000
     22718       198  POPC      H5Y            25.6924797812      -27.6272734321      -11.2982744933  MEMB      198             0.0000000000
     22719       198  POPC      C36            26.8980265783      -29.0001855164       -9.9980709863  MEMB      198             0.0000000000
     22720       198  POPC      H6X            27.7578635477      -28.9435146279      -10.6993475427  MEMB      198             0.0000000000
     22721       198  POPC      H6Y            26.7829057128      -30.0614072278       -9.6900505514  MEMB      198             0.0000000000
     22722       198  POPC      C37            26.9590594581      -28.1191565251       -8.8168020957  MEMB      198             0.0000000000
     22723       198  POPC      H7X            27.3621811009      -27.1499142190       -9.1806478449  MEMB      198             0.0000000000
     22724       198  POPC      H7Y            27.6654485633      -28.4604661849       -8.0301365434  MEMB      198             0.0000000000
     22725       198  POPC      C38            25.5254068735      -27.8450019734       -8.0915182247  MEMB      198             0.0000000000
     22726       198  POPC      H8X            24.8902386674      -28.7412824396       -8.2575413968  MEMB      198             0.0000000000
     22727       198  POPC      H8Y            25.1311616862      -26.9904316622       -8.6819433260  MEMB      198             0.0000000000
     22728       198  POPC      C39            25.6038854739      -27.3059162174       -6.6561587131  MEMB      198             0.0000000000
     22729       198  POPC      H9X            24.6940155415      -26.7038629697       -6.4464215440  MEMB      198             0.0000000000
     22730       198  POPC      H9Y            26.4200159196      -26.5541224056       -6.6008554120  MEMB      198             0.0000000000
     22731       198  POPC      C310           25.7545208330      -28.3223858255       -5.5306109171  MEMB      198             0.0000000000
     22732       198  POPC      H10X           25.7752161286      -27.6704375554       -4.6312470237  MEMB      198             0.0000000000
     22733       198  POPC      H10Y           26.7417295243      -28.7929762719       -5.7262759289  MEMB      198             0.0000000000
     22734       198  POPC      C311           24.5652963487      -29.2754795850       -5.3338047296  MEMB      198             0.0000000000
     22735       198  POPC      H11X           24.4534603898      -29.9359606713       -6.2201335585  MEMB      198             0.0000000000
     22736       198  POPC      H11Y           23.5993088772      -28.7814976491       -5.0946993985  MEMB      198             0.0000000000
     22737       198  POPC      C312           24.7974051940      -30.3338158723       -4.1630170578  MEMB      198             0.0000000000
     22738       198  POPC      H12X           25.8715615482      -30.4683819417       -3.9132147163  MEMB      198             0.0000000000
     22739       198  POPC      H12Y           24.4395173559      -31.2557926365       -4.6691750842  MEMB      198             0.0000000000
     22740       198  POPC      C313           23.9943224200      -30.0362852124       -2.8853039130  MEMB      198             0.0000000000
     22741       198  POPC      H13X           24.2544446086      -30.8335492673       -2.1565885160  MEMB      198             0.0000000000
     22742       198  POPC      H13Y           22.9019480095      -30.1273179388       -3.0662801645  MEMB      198             0.0000000000
     22743       198  POPC      C314           24.3378379366      -28.6081995321       -2.3301085508  MEMB      198             0.0000000000
     22744       198  POPC      H14X           23.7674997194      -27.8032468437       -2.8410738890  MEMB      198             0.0000000000
     22745       198  POPC      H14Y           25.4246201511      -28.4598495459       -2.5067916425  MEMB      198             0.0000000000
     22746       198  POPC      C315           24.0552342607      -28.4516703334       -0.8560831476  MEMB      198             0.0000000000
     22747       198  POPC      H15X           24.5991171345      -29.1650152362       -0.2006041881  MEMB      198             0.0000000000
     22748       198  POPC      H15Y           22.9639744170      -28.6462410142       -0.7811445590  MEMB      198             0.0000000000
     22749       198  POPC      C316           24.2661493560      -27.0944743249       -0.3117822833  MEMB      198             0.0000000000
     22750       198  POPC      H16X           23.9928148780      -27.1162751870        0.7648484015  MEMB      198             0.0000000000
     22751       198  POPC      H16Y           23.5839939880      -26.3847237789       -0.8267967475  MEMB      198             0.0000000000
     22752       198  POPC      H16Z           25.3112730453      -26.7439382462       -0.4502098594  MEMB      198             0.0000000000
     22753       199  POPC      N             -11.9314234985       39.0437075489      -20.5611963331  MEMB      199             0.0000000000
     22754       199  POPC      C12           -12.3285288225       38.3582168218      -19.2318031147  MEMB      199             0.0000000000
     22755       199  POPC      H12A          -13.3532500256       38.0504179911      -19.3787931663  MEMB      199             0.0000000000
     22756       199  POPC      H12B          -12.2148423176       39.0563082894      -18.4156268530  MEMB      199             0.0000000000
     22757       199  POPC      C13           -11.8936215322       37.9935894567      -21.5683791030  MEMB      199             0.0000000000
     22758       199  POPC      H13A          -11.7119208205       38.4492401599      -22.5305470121  MEMB      199             0.0000000000
     22759       199  POPC      H13B          -11.1729547461       37.2337917295      -21.3042830476  MEMB      199             0.0000000000
     22760       199  POPC      H13C          -12.8513329838       37.4951335805      -21.5413475174  MEMB      199             0.0000000000
     22761       199  POPC      C14           -12.9454490451       40.0884498214      -20.9155472365  MEMB      199             0.0000000000
     22762       199  POPC      H14A          -12.7197304078       40.5933007870      -21.8432200403  MEMB      199             0.0000000000
     22763       199  POPC      H14B          -13.9224661491       39.6348583245      -20.9936004413  MEMB      199             0.0000000000
     22764       199  POPC      H14C          -13.0335732665       40.8117647388      -20.1183961995  MEMB      199             0.0000000000
     22765       199  POPC      C15           -10.6032222733       39.7110848508      -20.5402404119  MEMB      199             0.0000000000
     22766       199  POPC      H15A          -10.4289505033       40.0314355742      -21.5568057404  MEMB      199             0.0000000000
     22767       199  POPC      H15B           -9.9407410664       38.9134597730      -20.2380604216  MEMB      199             0.0000000000
     22768       199  POPC      H15C          -10.5979638480       40.5831345370      -19.9031362867  MEMB      199             0.0000000000
     22769       199  POPC      C11           -11.5170508713       37.0926899990      -18.8218359619  MEMB      199             0.0000000000
     22770       199  POPC      H11A          -11.7550747083       36.3165694332      -19.5803228882  MEMB      199             0.0000000000
     22771       199  POPC      H11B          -11.8550165203       36.5822675480      -17.8947063667  MEMB      199             0.0000000000
     22772       199  POPC      P              -9.4062104767       37.5329441898      -17.4492418448  MEMB      199             0.0000000000
     22773       199  POPC      O13            -8.1724626285       38.2830245564      -17.7062067225  MEMB      199             0.0000000000
     22774       199  POPC      O14            -9.2278813771       36.2245449971      -16.7861494611  MEMB      199             0.0000000000
     22775       199  POPC      O12           -10.0971400539       37.2570405717      -18.8873230194  MEMB      199             0.0000000000
     22776       199  POPC      O11           -10.2645402152       38.4447098875      -16.5320768107  MEMB      199             0.0000000000
     22777       199  POPC      C1            -10.4397467109       39.8325820468      -16.7329213894  MEMB      199             0.0000000000
     22778       199  POPC      HA            -11.4275307518       39.9804073902      -17.2194922505  MEMB      199             0.0000000000
     22779       199  POPC      HB             -9.6706294252       40.2975090012      -17.3860847736  MEMB      199             0.0000000000
     22780       199  POPC      C2            -10.4757643210       40.5725437053      -15.3216706358  MEMB      199             0.0000000000
     22781       199  POPC      HS            -10.3302744718       41.6726462631      -15.3757792713  MEMB      199             0.0000000000
     22782       199  POPC      O21            -9.4133189464       40.1846911789      -14.3634858329  MEMB      199             0.0000000000
     22783       199  POPC      C21            -8.1963956183       40.2224367727      -14.8261146664  MEMB      199             0.0000000000
     22784       199  POPC      O22            -7.8891788275       40.8615551340      -15.8080532992  MEMB      199             0.0000000000
     22785       199  POPC      C22            -7.3258985046       39.1694299301      -14.1292383173  MEMB      199             0.0000000000
     22786       199  POPC      H2R            -6.3199197688       39.5850713760      -13.9065955376  MEMB      199             0.0000000000
     22787       199  POPC      H2S            -7.1032703767       38.3712794537      -14.8693152949  MEMB      199             0.0000000000
     22788       199  POPC      C3            -11.8632467309       40.2537145186      -14.6069266349  MEMB      199             0.0000000000
     22789       199  POPC      HX            -12.7154767659       40.5792995857      -15.2409767609  MEMB      199             0.0000000000
     22790       199  POPC      HY            -11.8162711462       40.8686261940      -13.6828069488  MEMB      199             0.0000000000
     22791       199  POPC      O31           -12.0057963692       38.8269740252      -14.2908728551  MEMB      199             0.0000000000
     22792       199  POPC      C31           -13.1074101120       38.4472008598      -13.6120857994  MEMB      199             0.0000000000
     22793       199  POPC      O32           -13.8772525638       39.2637573471      -13.1555534387  MEMB      199             0.0000000000
     22794       199  POPC      C32           -13.2095531483       36.9037057470      -13.5304929193  MEMB      199             0.0000000000
     22795       199  POPC      H2X           -14.2812319724       36.6109465474      -13.5196459618  MEMB      199             0.0000000000
     22796       199  POPC      H2Y           -12.8221378928       36.6356407714      -12.5243262564  MEMB      199             0.0000000000
     22797       199  POPC      C23            -7.9859466767       38.5009841190      -12.9398524153  MEMB      199             0.0000000000
     22798       199  POPC      H3R            -7.3274843256       37.6506577382      -12.6611167803  MEMB      199             0.0000000000
     22799       199  POPC      H3S            -8.9560065066       37.9910622175      -13.1222928548  MEMB      199             0.0000000000
     22800       199  POPC      C24            -8.2425368924       39.4191186090      -11.6353652355  MEMB      199             0.0000000000
     22801       199  POPC      H4R            -8.5996722015       40.4445227936      -11.8705707611  MEMB      199             0.0000000000
     22802       199  POPC      H4S            -7.1952775586       39.5116962175      -11.2762018524  MEMB      199             0.0000000000
     22803       199  POPC      C25            -9.1770590835       38.7694667995      -10.5969205424  MEMB      199             0.0000000000
     22804       199  POPC      H5R            -8.8433976807       37.7354363931      -10.3650327526  MEMB      199             0.0000000000
     22805       199  POPC      H5S           -10.1423756097       38.6748605300      -11.1387095036  MEMB      199             0.0000000000
     22806       199  POPC      C26            -9.3748366338       39.4865816307       -9.1950660903  MEMB      199             0.0000000000
     22807       199  POPC      H6R            -8.4024608102       39.8137884469       -8.7687536077  MEMB      199             0.0000000000
     22808       199  POPC      H6S            -9.7845608325       38.7178869075       -8.5054607095  MEMB      199             0.0000000000
     22809       199  POPC      C27           -10.4594448425       40.5952332475       -9.2648105075  MEMB      199             0.0000000000
     22810       199  POPC      H7R           -10.0102931282       41.4343335187       -9.8379545659  MEMB      199             0.0000000000
     22811       199  POPC      H7S           -10.6785087168       40.8188118350       -8.1988153571  MEMB      199             0.0000000000
     22812       199  POPC      C28           -11.7807086689       40.1329585757       -9.9007325272  MEMB      199             0.0000000000
     22813       199  POPC      H8R           -12.2609309993       39.3022594719       -9.3406909421  MEMB      199             0.0000000000
     22814       199  POPC      H8S           -11.5379037687       39.9756757623      -10.9734063915  MEMB      199             0.0000000000
     22815       199  POPC      C29           -12.6968567686       41.3263455323       -9.8787142696  MEMB      199             0.0000000000
     22816       199  POPC      H91           -12.4237649324       42.0499439687      -10.6609073386  MEMB      199             0.0000000000
     22817       199  POPC      C210          -13.6588567852       41.5274572308       -8.9191542308  MEMB      199             0.0000000000
     22818       199  POPC      H101          -14.4700029568       42.1893210099       -9.2567602951  MEMB      199             0.0000000000
     22819       199  POPC      C211          -14.0385337911       40.6227438435       -7.7179079416  MEMB      199             0.0000000000
     22820       199  POPC      H11R          -13.2811948603       40.8989995334       -6.9534201996  MEMB      199             0.0000000000
     22821       199  POPC      H11S          -13.8091443987       39.5704148679       -7.9904968570  MEMB      199             0.0000000000
     22822       199  POPC      C212          -15.5025760078       40.8712163695       -7.1932282229  MEMB      199             0.0000000000
     22823       199  POPC      H12R          -16.2430175950       40.8757760796       -8.0215069407  MEMB      199             0.0000000000
     22824       199  POPC      H12S          -15.6620664070       41.8497451491       -6.6918652586  MEMB      199             0.0000000000
     22825       199  POPC      C213          -15.8609951110       39.7838125489       -6.1145891358  MEMB      199             0.0000000000
     22826       199  POPC      H13R          -15.5962790886       38.8081839617       -6.5754524213  MEMB      199             0.0000000000
     22827       199  POPC      H13S          -16.9525503520       39.5994168404       -6.0206438576  MEMB      199             0.0000000000
     22828       199  POPC      C214          -15.1824823904       40.0904207946       -4.8495541654  MEMB      199             0.0000000000
     22829       199  POPC      H14R          -15.7499256016       40.8940812527       -4.3333580037  MEMB      199             0.0000000000
     22830       199  POPC      H14S          -14.0899069224       40.2612757841       -4.9563644377  MEMB      199             0.0000000000
     22831       199  POPC      C215          -15.2285380477       38.8881422892       -3.8770018773  MEMB      199             0.0000000000
     22832       199  POPC      H15R          -16.1442113155       38.2883920672       -4.0671676720  MEMB      199             0.0000000000
     22833       199  POPC      H15S          -15.2856816377       39.3926144018       -2.8887902136  MEMB      199             0.0000000000
     22834       199  POPC      C216          -13.9334303131       38.0683418583       -3.9610365549  MEMB      199             0.0000000000
     22835       199  POPC      H16R          -12.9745946241       38.6293817544       -3.9747965629  MEMB      199             0.0000000000
     22836       199  POPC      H16S          -13.8881110357       37.5125242191       -4.9219389452  MEMB      199             0.0000000000
     22837       199  POPC      C217          -13.7978834728       36.9752614368       -2.8931179515  MEMB      199             0.0000000000
     22838       199  POPC      H17R          -12.7712746415       36.6066208427       -3.1040670712  MEMB      199             0.0000000000
     22839       199  POPC      H17S          -14.5564126308       36.1732991851       -3.0188564290  MEMB      199             0.0000000000
     22840       199  POPC      C218          -13.6475707258       37.3906927417       -1.5033068719  MEMB      199             0.0000000000
     22841       199  POPC      H18R          -14.4604824984       38.0848899923       -1.2006755355  MEMB      199             0.0000000000
     22842       199  POPC      H18S          -12.6311367849       37.8003281494       -1.3206008382  MEMB      199             0.0000000000
     22843       199  POPC      H18T          -13.8369178114       36.4861541414       -0.8866384290  MEMB      199             0.0000000000
     22844       199  POPC      C33           -12.5143587731       36.1931765878      -14.7412958459  MEMB      199             0.0000000000
     22845       199  POPC      H3X           -11.4616890108       36.5145654252      -14.8926778183  MEMB      199             0.0000000000
     22846       199  POPC      H3Y           -13.0256833538       36.4210018972      -15.7009644230  MEMB      199             0.0000000000
     22847       199  POPC      C34           -12.3323670311       34.7155574578      -14.4717268215  MEMB      199             0.0000000000
     22848       199  POPC      H4X           -11.8262470040       34.1931190964      -15.3115016129  MEMB      199             0.0000000000
     22849       199  POPC      H4Y           -13.3467523482       34.3194544325      -14.2516236805  MEMB      199             0.0000000000
     22850       199  POPC      C35           -11.5262504496       34.4510287734      -13.1017634839  MEMB      199             0.0000000000
     22851       199  POPC      H5X           -11.2215077380       33.3828005179      -13.1202370262  MEMB      199             0.0000000000
     22852       199  POPC      H5Y           -12.2405690043       34.6624069472      -12.2775125987  MEMB      199             0.0000000000
     22853       199  POPC      C36           -10.3244739519       35.2861865994      -12.7973639072  MEMB      199             0.0000000000
     22854       199  POPC      H6X           -10.4636595766       36.3876896425      -12.7568706209  MEMB      199             0.0000000000
     22855       199  POPC      H6Y            -9.5587498585       35.1626113673      -13.5927987418  MEMB      199             0.0000000000
     22856       199  POPC      C37            -9.5992534114       35.0009329660      -11.4396332292  MEMB      199             0.0000000000
     22857       199  POPC      H7X            -8.6937193651       35.6441082022      -11.4652185487  MEMB      199             0.0000000000
     22858       199  POPC      H7Y            -9.2968269829       33.9329011116      -11.4861839183  MEMB      199             0.0000000000
     22859       199  POPC      C38           -10.4388107922       35.3860293395      -10.2642445659  MEMB      199             0.0000000000
     22860       199  POPC      H8X           -11.2099064041       34.6019069800      -10.1064967173  MEMB      199             0.0000000000
     22861       199  POPC      H8Y           -10.9784043112       36.3450306676      -10.4174647193  MEMB      199             0.0000000000
     22862       199  POPC      C39            -9.6469304067       35.4511049890       -8.9255926714  MEMB      199             0.0000000000
     22863       199  POPC      H9X            -8.7192938968       36.0557807478       -9.0160284669  MEMB      199             0.0000000000
     22864       199  POPC      H9Y            -9.3184131482       34.4927198392       -8.4696376443  MEMB      199             0.0000000000
     22865       199  POPC      C310          -10.5117357413       35.9559549540       -7.7523225794  MEMB      199             0.0000000000
     22866       199  POPC      H10X          -11.3456024670       35.2409565488       -7.5856958759  MEMB      199             0.0000000000
     22867       199  POPC      H10Y          -10.8991524323       36.9774033915       -7.9544917584  MEMB      199             0.0000000000
     22868       199  POPC      C311           -9.6960070656       36.1743630898       -6.4521682376  MEMB      199             0.0000000000
     22869       199  POPC      H11X           -8.6384499036       36.4879998240       -6.5845521610  MEMB      199             0.0000000000
     22870       199  POPC      H11Y           -9.6236113139       35.2550190422       -5.8325819751  MEMB      199             0.0000000000
     22871       199  POPC      C312          -10.3884336022       37.2107248474       -5.4644264019  MEMB      199             0.0000000000
     22872       199  POPC      H12X          -11.4268207355       36.9430955115       -5.1738274143  MEMB      199             0.0000000000
     22873       199  POPC      H12Y          -10.4742688176       38.1542341735       -6.0447225032  MEMB      199             0.0000000000
     22874       199  POPC      C313           -9.5928934872       37.3476396989       -4.1638582231  MEMB      199             0.0000000000
     22875       199  POPC      H13X           -8.5414344152       37.5106817075       -4.4835020685  MEMB      199             0.0000000000
     22876       199  POPC      H13Y           -9.6763456116       36.4439285841       -3.5230285447  MEMB      199             0.0000000000
     22877       199  POPC      C314           -9.9437737002       38.4752729301       -3.1980626766  MEMB      199             0.0000000000
     22878       199  POPC      H14X          -11.0266190722       38.3258504085       -2.9994686772  MEMB      199             0.0000000000
     22879       199  POPC      H14Y           -9.9218411263       39.5126915579       -3.5950548801  MEMB      199             0.0000000000
     22880       199  POPC      C315           -9.1041984930       38.5944221521       -1.9044242448  MEMB      199             0.0000000000
     22881       199  POPC      H15X           -9.1488188502       37.6723448207       -1.2862797060  MEMB      199             0.0000000000
     22882       199  POPC      H15Y           -9.5220258715       39.4340548433       -1.3088095876  MEMB      199             0.0000000000
     22883       199  POPC      C316           -7.6534224484       38.9326315823       -2.1693656295  MEMB      199             0.0000000000
     22884       199  POPC      H16X           -7.0647696663       38.3504072990       -2.9101913999  MEMB      199             0.0000000000
     22885       199  POPC      H16Y           -6.9973343751       39.1661445420       -1.3037202241  MEMB      199             0.0000000000
     22886       199  POPC      H16Z           -7.6708524041       39.9073107779       -2.7022992441  MEMB      199             0.0000000000
     22887       200  POPC      N             -38.7726140513       10.5926122019      -20.2143924315  MEMB      200             0.0000000000
     22888       200  POPC      C12           -38.7523536776       10.0853292103      -18.7578269719  MEMB      200             0.0000000000
     22889       200  POPC      H12A          -39.7284543832       10.3805801121      -18.4022227639  MEMB      200             0.0000000000
     22890       200  POPC      H12B          -38.0600635450       10.7604079564      -18.2767835312  MEMB      200             0.0000000000
     22891       200  POPC      C13           -38.9101013619       12.0657313702      -20.1502157292  MEMB      200             0.0000000000
     22892       200  POPC      H13A          -39.7318412342       12.4406153125      -19.5580960594  MEMB      200             0.0000000000
     22893       200  POPC      H13B          -38.0663043011       12.5816745783      -19.7163851343  MEMB      200             0.0000000000
     22894       200  POPC      H13C          -39.1823407917       12.4776864864      -21.1107252351  MEMB      200             0.0000000000
     22895       200  POPC      C14           -37.4496609549       10.3405179022      -20.9021505877  MEMB      200             0.0000000000
     22896       200  POPC      H14A          -36.7151163805       10.8858007878      -20.3281200381  MEMB      200             0.0000000000
     22897       200  POPC      H14B          -37.2053648972        9.2885181937      -20.8981289509  MEMB      200             0.0000000000
     22898       200  POPC      H14C          -37.5062145961       10.7714348508      -21.8908427966  MEMB      200             0.0000000000
     22899       200  POPC      C15           -39.9767873764        9.9614352209      -21.0351347628  MEMB      200             0.0000000000
     22900       200  POPC      H15A          -39.9721648291       10.2537500595      -22.0748128440  MEMB      200             0.0000000000
     22901       200  POPC      H15B          -40.9237130085       10.3474234523      -20.6876508632  MEMB      200             0.0000000000
     22902       200  POPC      H15C          -40.0594977791        8.9014875228      -20.8452142809  MEMB      200             0.0000000000
     22903       200  POPC      C11           -38.1754399838        8.7239699055      -18.3971850998  MEMB      200             0.0000000000
     22904       200  POPC      H11A          -38.1809465870        8.7894398774      -17.2881294842  MEMB      200             0.0000000000
     22905       200  POPC      H11B          -37.1439596533        8.6727926856      -18.8067583002  MEMB      200             0.0000000000
     22906       200  POPC      P             -40.0258497923        6.8268595391      -17.8729923682  MEMB      200             0.0000000000
     22907       200  POPC      O13           -40.2507749621        5.5104501364      -18.5535739234  MEMB      200             0.0000000000
     22908       200  POPC      O14           -41.1650826977        7.7113676337      -17.7421227982  MEMB      200             0.0000000000
     22909       200  POPC      O12           -39.0461086717        7.6656996337      -18.8656926638  MEMB      200             0.0000000000
     22910       200  POPC      O11           -39.3489390715        6.6078274447      -16.5087126641  MEMB      200             0.0000000000
     22911       200  POPC      C1            -38.1286860712        5.8703488166      -16.4649376669  MEMB      200             0.0000000000
     22912       200  POPC      HA            -37.3730236392        6.2261098131      -17.1975559422  MEMB      200             0.0000000000
     22913       200  POPC      HB            -38.2630168563        4.7856161424      -16.6640135228  MEMB      200             0.0000000000
     22914       200  POPC      C2            -37.4634101168        5.9199019346      -15.0323130177  MEMB      200             0.0000000000
     22915       200  POPC      HS            -36.6142306095        5.2038042067      -15.0527852445  MEMB      200             0.0000000000
     22916       200  POPC      O21           -38.3455839308        5.6087934559      -13.9403690563  MEMB      200             0.0000000000
     22917       200  POPC      C21           -37.8472145933        5.0605544634      -12.8505044196  MEMB      200             0.0000000000
     22918       200  POPC      O22           -36.6777303685        4.7923859789      -12.6972156529  MEMB      200             0.0000000000
     22919       200  POPC      C22           -38.9414193181        4.6441180880      -11.8723080082  MEMB      200             0.0000000000
     22920       200  POPC      H2R           -39.2602785801        3.6213609023      -12.1666178581  MEMB      200             0.0000000000
     22921       200  POPC      H2S           -39.8166259247        5.3138652009      -12.0129252891  MEMB      200             0.0000000000
     22922       200  POPC      C3            -36.7927696449        7.2531103158      -14.7388628185  MEMB      200             0.0000000000
     22923       200  POPC      HX            -35.9448836825        7.5700665719      -15.3830282519  MEMB      200             0.0000000000
     22924       200  POPC      HY            -36.3139033797        6.9775819715      -13.7749683178  MEMB      200             0.0000000000
     22925       200  POPC      O31           -37.7803083016        8.2633274171      -14.7587491546  MEMB      200             0.0000000000
     22926       200  POPC      C31           -37.7609001125        9.0998512094      -13.7011502307  MEMB      200             0.0000000000
     22927       200  POPC      O32           -36.9012057118        9.1373500561      -12.8720394486  MEMB      200             0.0000000000
     22928       200  POPC      C32           -38.7980961408       10.1897961554      -13.8980108473  MEMB      200             0.0000000000
     22929       200  POPC      H2X           -39.4855319964        9.9669862584      -14.7418757102  MEMB      200             0.0000000000
     22930       200  POPC      H2Y           -38.1486869222       11.0526934598      -14.1587731589  MEMB      200             0.0000000000
     22931       200  POPC      C23           -38.5047952074        4.8164469183      -10.4360845361  MEMB      200             0.0000000000
     22932       200  POPC      H3R           -37.5347046700        4.2788440976      -10.3710550714  MEMB      200             0.0000000000
     22933       200  POPC      H3S           -39.2924993416        4.3047512097       -9.8427803408  MEMB      200             0.0000000000
     22934       200  POPC      C24           -38.2186890875        6.2479524055       -9.9903232767  MEMB      200             0.0000000000
     22935       200  POPC      H4R           -39.2130247458        6.7432475297       -9.9729874476  MEMB      200             0.0000000000
     22936       200  POPC      H4S           -37.5625193628        6.7540228769      -10.7303601354  MEMB      200             0.0000000000
     22937       200  POPC      C25           -37.5207713755        6.3498393468       -8.6394371524  MEMB      200             0.0000000000
     22938       200  POPC      H5R           -36.7281963177        5.5833198146       -8.5030778850  MEMB      200             0.0000000000
     22939       200  POPC      H5S           -38.2872731281        6.0424557269       -7.8962612074  MEMB      200             0.0000000000
     22940       200  POPC      C26           -37.0527911552        7.7466956581       -8.2599734305  MEMB      200             0.0000000000
     22941       200  POPC      H6R           -36.2788784818        7.9884040123       -9.0195502215  MEMB      200             0.0000000000
     22942       200  POPC      H6S           -36.5970183005        7.6055692852       -7.2566410021  MEMB      200             0.0000000000
     22943       200  POPC      C27           -38.2227220621        8.7553494552       -8.1173220959  MEMB      200             0.0000000000
     22944       200  POPC      H7R           -38.9815167377        8.1547817238       -7.5715473579  MEMB      200             0.0000000000
     22945       200  POPC      H7S           -38.5105901487        9.0041976704       -9.1611262751  MEMB      200             0.0000000000
     22946       200  POPC      C28           -37.7956098684        9.9890965871       -7.3216751581  MEMB      200             0.0000000000
     22947       200  POPC      H8R           -36.7704267903       10.3460883319       -7.5580599552  MEMB      200             0.0000000000
     22948       200  POPC      H8S           -37.7425189943        9.7173925671       -6.2457203410  MEMB      200             0.0000000000
     22949       200  POPC      C29           -38.6666084830       11.1533125853       -7.6750389239  MEMB      200             0.0000000000
     22950       200  POPC      H91           -38.3094803874       11.7346972487       -8.5378553827  MEMB      200             0.0000000000
     22951       200  POPC      C210          -39.8049157340       11.6699396346       -7.0685614391  MEMB      200             0.0000000000
     22952       200  POPC      H101          -40.3353870141       12.5679020671       -7.4182232285  MEMB      200             0.0000000000
     22953       200  POPC      C211          -40.4680419083       11.1577879402       -5.8146521567  MEMB      200             0.0000000000
     22954       200  POPC      H11R          -39.9673968049       10.2444592785       -5.4279914143  MEMB      200             0.0000000000
     22955       200  POPC      H11S          -41.5447152767       10.9440661530       -5.9861697446  MEMB      200             0.0000000000
     22956       200  POPC      C212          -40.4247252206       12.1879082555       -4.6592955823  MEMB      200             0.0000000000
     22957       200  POPC      H12R          -40.9619173438       11.6413728216       -3.8549051112  MEMB      200             0.0000000000
     22958       200  POPC      H12S          -40.9495741490       13.1241507637       -4.9461833643  MEMB      200             0.0000000000
     22959       200  POPC      C213          -39.0337702173       12.3961137377       -4.0998509797  MEMB      200             0.0000000000
     22960       200  POPC      H13R          -38.4531765103       12.8620932994       -4.9245291084  MEMB      200             0.0000000000
     22961       200  POPC      H13S          -38.5598519633       11.4418801696       -3.7849527500  MEMB      200             0.0000000000
     22962       200  POPC      C214          -38.9974308421       13.3576233809       -2.8791222479  MEMB      200             0.0000000000
     22963       200  POPC      H14R          -39.5166109752       14.3257002626       -3.0452547888  MEMB      200             0.0000000000
     22964       200  POPC      H14S          -37.9016137419       13.4656101235       -2.7313216807  MEMB      200             0.0000000000
     22965       200  POPC      C215          -39.7349196546       12.8656472912       -1.5841083921  MEMB      200             0.0000000000
     22966       200  POPC      H15R          -40.8288212159       12.7693610881       -1.7527174282  MEMB      200             0.0000000000
     22967       200  POPC      H15S          -39.6326788135       13.7477751388       -0.9164865748  MEMB      200             0.0000000000
     22968       200  POPC      C216          -39.0244238942       11.6140808150       -1.0606738576  MEMB      200             0.0000000000
     22969       200  POPC      H16R          -37.9469820102       11.8849621774       -1.0527217994  MEMB      200             0.0000000000
     22970       200  POPC      H16S          -39.0796435499       10.8144102241       -1.8299585199  MEMB      200             0.0000000000
     22971       200  POPC      C217          -39.4025874433       11.3895378343        0.4123065956  MEMB      200             0.0000000000
     22972       200  POPC      H17R          -40.4101812500       10.9793021718        0.6376568232  MEMB      200             0.0000000000
     22973       200  POPC      H17S          -39.3376900550       12.3881075522        0.8949741394  MEMB      200             0.0000000000
     22974       200  POPC      C218          -38.5256468958       10.3842765911        1.2443040472  MEMB      200             0.0000000000
     22975       200  POPC      H18R          -37.4735942292       10.4838547233        0.9013896659  MEMB      200             0.0000000000
     22976       200  POPC      H18S          -38.7396410053        9.2980823593        1.1509778375  MEMB      200             0.0000000000
     22977       200  POPC      H18T          -38.5334140062       10.7591635256        2.2901145243  MEMB      200             0.0000000000
     22978       200  POPC      C33           -39.4967824468       10.2347449667      -12.4785181964  MEMB      200             0.0000000000
     22979       200  POPC      H3X           -40.0746153230       11.1797830484      -12.3928845355  MEMB      200             0.0000000000
     22980       200  POPC      H3Y           -38.8407648712       10.3168142781      -11.5856430180  MEMB      200             0.0000000000
     22981       200  POPC      C34           -40.6125414378        9.1558191111      -12.2901850303  MEMB      200             0.0000000000
     22982       200  POPC      H4X           -40.1314241069        8.1704860927      -12.4689754776  MEMB      200             0.0000000000
     22983       200  POPC      H4Y           -41.3199013523        9.3760275408      -13.1181171607  MEMB      200             0.0000000000
     22984       200  POPC      C35           -41.2343268266        9.0748523433      -10.9389741864  MEMB      200             0.0000000000
     22985       200  POPC      H5X           -41.5179175215       10.0208339089      -10.4300383388  MEMB      200             0.0000000000
     22986       200  POPC      H5Y           -40.4140078270        8.5779105745      -10.3782186382  MEMB      200             0.0000000000
     22987       200  POPC      C36           -42.4308117232        8.0257986757      -10.8123727906  MEMB      200             0.0000000000
     22988       200  POPC      H6X           -42.0874185312        6.9991769354      -11.0622727548  MEMB      200             0.0000000000
     22989       200  POPC      H6Y           -43.1730970196        8.1881295593      -11.6229175065  MEMB      200             0.0000000000
     22990       200  POPC      C37           -43.0446615802        7.8851331206       -9.4833417426  MEMB      200             0.0000000000
     22991       200  POPC      H7X           -44.0436012762        7.4033134846       -9.4178391072  MEMB      200             0.0000000000
     22992       200  POPC      H7Y           -43.3497208673        8.9277873122       -9.2506788572  MEMB      200             0.0000000000
     22993       200  POPC      C38           -42.1220051412        7.5534541645       -8.2820497168  MEMB      200             0.0000000000
     22994       200  POPC      H8X           -41.4375679744        8.4072344166       -8.0898892708  MEMB      200             0.0000000000
     22995       200  POPC      H8Y           -41.4706513806        6.7095679314       -8.5949642668  MEMB      200             0.0000000000
     22996       200  POPC      C39           -42.7836727867        7.1967628461       -6.9263198562  MEMB      200             0.0000000000
     22997       200  POPC      H9X           -43.4857947464        6.3371586578       -6.9755790911  MEMB      200             0.0000000000
     22998       200  POPC      H9Y           -43.3242234208        8.0398649174       -6.4453792079  MEMB      200             0.0000000000
     22999       200  POPC      C310          -41.7496164893        6.8807216265       -5.8004180413  MEMB      200             0.0000000000
     23000       200  POPC      H10X          -42.3135285926        6.7334375327       -4.8545685318  MEMB      200             0.0000000000
     23001       200  POPC      H10Y          -41.0838059646        7.7700635220       -5.8098311061  MEMB      200             0.0000000000
     23002       200  POPC      C311          -40.8620326602        5.6722562432       -6.0000468553  MEMB      200             0.0000000000
     23003       200  POPC      H11X          -40.1780812148        5.7472419278       -6.8723471465  MEMB      200             0.0000000000
     23004       200  POPC      H11Y          -41.5711324564        4.8376854971       -6.1871019492  MEMB      200             0.0000000000
     23005       200  POPC      C312          -39.9392470132        5.2625034122       -4.8446962775  MEMB      200             0.0000000000
     23006       200  POPC      H12X          -39.0741820709        4.6584142277       -5.1926333815  MEMB      200             0.0000000000
     23007       200  POPC      H12Y          -40.5577652786        4.5471730497       -4.2615513003  MEMB      200             0.0000000000
     23008       200  POPC      C313          -39.3864492934        6.4376332156       -3.9555648543  MEMB      200             0.0000000000
     23009       200  POPC      H13X          -40.1160610777        7.2364512665       -3.7028251607  MEMB      200             0.0000000000
     23010       200  POPC      H13Y          -38.6273703763        6.8609629096       -4.6475999497  MEMB      200             0.0000000000
     23011       200  POPC      C314          -38.5858095858        5.9093655026       -2.7717313607  MEMB      200             0.0000000000
     23012       200  POPC      H14X          -37.9735953498        5.1295062013       -3.2730632073  MEMB      200             0.0000000000
     23013       200  POPC      H14Y          -39.2830441997        5.5145183221       -2.0021323454  MEMB      200             0.0000000000
     23014       200  POPC      C315          -37.6963689981        6.9604176760       -2.1407078909  MEMB      200             0.0000000000
     23015       200  POPC      H15X          -36.9042206108        7.3342840631       -2.8241144949  MEMB      200             0.0000000000
     23016       200  POPC      H15Y          -37.2088123559        6.4279257465       -1.2962778618  MEMB      200             0.0000000000
     23017       200  POPC      C316          -38.4656895178        8.1638701403       -1.5422963424  MEMB      200             0.0000000000
     23018       200  POPC      H16X          -39.2315271900        7.6256240279       -0.9438779035  MEMB      200             0.0000000000
     23019       200  POPC      H16Y          -38.8021709940        8.8376075558       -2.3591068159  MEMB      200             0.0000000000
     23020       200  POPC      H16Z          -37.8245618717        8.8688561258       -0.9710958028  MEMB      200             0.0000000000
     23021       201  POPC      N             -40.1615561782        0.4276410439      -18.9494944350  MEMB      201             0.0000000000
     23022       201  POPC      C12           -40.7665714414       -0.9569416000      -18.5980653343  MEMB      201             0.0000000000
     23023       201  POPC      H12A          -41.7930023139       -0.7380502000      -18.3432584981  MEMB      201             0.0000000000
     23024       201  POPC      H12B          -40.3670934603       -1.2692453039      -17.6445016658  MEMB      201             0.0000000000
     23025       201  POPC      C13           -40.8960447125        1.0513238804      -20.1316318466  MEMB      201             0.0000000000
     23026       201  POPC      H13A          -40.4878181818        2.0369022099      -20.3001148137  MEMB      201             0.0000000000
     23027       201  POPC      H13B          -40.7422203168        0.4046414241      -20.9828311133  MEMB      201             0.0000000000
     23028       201  POPC      H13C          -41.9007292598        1.1509281654      -19.7481109644  MEMB      201             0.0000000000
     23029       201  POPC      C14           -40.3762919769        1.2595985910      -17.7501130749  MEMB      201             0.0000000000
     23030       201  POPC      H14A          -39.7814286398        0.9098604647      -16.9193176945  MEMB      201             0.0000000000
     23031       201  POPC      H14B          -40.0397643430        2.2635649652      -17.9627176628  MEMB      201             0.0000000000
     23032       201  POPC      H14C          -41.4403523539        1.2791289264      -17.5662819876  MEMB      201             0.0000000000
     23033       201  POPC      C15           -38.7199786735        0.2737677913      -19.1474620515  MEMB      201             0.0000000000
     23034       201  POPC      H15A          -38.3028324943       -0.0675405933      -18.2115680181  MEMB      201             0.0000000000
     23035       201  POPC      H15B          -38.3307293153        1.2641649794      -19.3318493574  MEMB      201             0.0000000000
     23036       201  POPC      H15C          -38.4553353996       -0.4737340483      -19.8806774830  MEMB      201             0.0000000000
     23037       201  POPC      C11           -40.7052180200       -2.0432779210      -19.6219520153  MEMB      201             0.0000000000
     23038       201  POPC      H11A          -41.2311418964       -1.6790506328      -20.5302820725  MEMB      201             0.0000000000
     23039       201  POPC      H11B          -41.3562490370       -2.9042202511      -19.3587827719  MEMB      201             0.0000000000
     23040       201  POPC      P             -38.6306370251       -3.4731427065      -18.9861497793  MEMB      201             0.0000000000
     23041       201  POPC      O13           -37.7098849056       -2.6110328836      -18.2173334235  MEMB      201             0.0000000000
     23042       201  POPC      O14           -38.0785147278       -4.6307491786      -19.7424189594  MEMB      201             0.0000000000
     23043       201  POPC      O12           -39.4275269151       -2.4848247846      -19.8723493398  MEMB      201             0.0000000000
     23044       201  POPC      O11           -39.7913305274       -4.0025112565      -17.9830297726  MEMB      201             0.0000000000
     23045       201  POPC      C1            -39.4898339811       -5.1842632153      -17.2612680611  MEMB      201             0.0000000000
     23046       201  POPC      HA            -38.4213237785       -5.1503811333      -16.9588469715  MEMB      201             0.0000000000
     23047       201  POPC      HB            -39.7404782494       -6.0280334819      -17.9391695231  MEMB      201             0.0000000000
     23048       201  POPC      C2            -40.2475533352       -5.0683754266      -15.8944389076  MEMB      201             0.0000000000
     23049       201  POPC      HS            -41.3082527105       -5.2443137177      -16.1742306550  MEMB      201             0.0000000000
     23050       201  POPC      O21           -39.8899163525       -3.8882726319      -15.1989873166  MEMB      201             0.0000000000
     23051       201  POPC      C21           -40.6514609702       -2.8873969259      -15.1716862309  MEMB      201             0.0000000000
     23052       201  POPC      O22           -41.7740185154       -2.8081585249      -15.6347981331  MEMB      201             0.0000000000
     23053       201  POPC      C22           -40.0085892214       -1.7515198685      -14.4013989217  MEMB      201             0.0000000000
     23054       201  POPC      H2R           -40.1014113105       -1.9718587278      -13.3164309559  MEMB      201             0.0000000000
     23055       201  POPC      H2S           -40.5963817170       -0.8247740670      -14.5744989432  MEMB      201             0.0000000000
     23056       201  POPC      C3            -40.0073167688       -6.4047847320      -14.9689605751  MEMB      201             0.0000000000
     23057       201  POPC      HX            -38.9343331009       -6.3045971207      -14.6987947831  MEMB      201             0.0000000000
     23058       201  POPC      HY            -40.0435901461       -7.3328991238      -15.5785578159  MEMB      201             0.0000000000
     23059       201  POPC      O31           -40.9268998083       -6.4086873629      -13.8993580294  MEMB      201             0.0000000000
     23060       201  POPC      C31           -40.9134405271       -7.4060149921      -12.9984177584  MEMB      201             0.0000000000
     23061       201  POPC      O32           -40.0856017316       -8.2969266403      -13.0363955320  MEMB      201             0.0000000000
     23062       201  POPC      C32           -42.1187240278       -7.3581279626      -11.9954429929  MEMB      201             0.0000000000
     23063       201  POPC      H2X           -41.8428359699       -7.4266920204      -10.9214294209  MEMB      201             0.0000000000
     23064       201  POPC      H2Y           -42.6970651526       -8.2842710079      -12.2006283265  MEMB      201             0.0000000000
     23065       201  POPC      C23           -38.5677401959       -1.5296421393      -14.9722923637  MEMB      201             0.0000000000
     23066       201  POPC      H3R           -38.5135522627       -1.6522592879      -16.0751747134  MEMB      201             0.0000000000
     23067       201  POPC      H3S           -38.0118092809       -2.3926476484      -14.5474592377  MEMB      201             0.0000000000
     23068       201  POPC      C24           -38.0242189961       -0.1466832952      -14.6939766380  MEMB      201             0.0000000000
     23069       201  POPC      H4R           -38.8221984064        0.5784857378      -14.9617076833  MEMB      201             0.0000000000
     23070       201  POPC      H4S           -37.2219586186        0.1419967475      -15.4062710955  MEMB      201             0.0000000000
     23071       201  POPC      C25           -37.6288995991        0.1608762206      -13.2668943248  MEMB      201             0.0000000000
     23072       201  POPC      H5R           -38.5873287068        0.1431039844      -12.7052731021  MEMB      201             0.0000000000
     23073       201  POPC      H5S           -37.1833779649        1.1778808472      -13.3060561248  MEMB      201             0.0000000000
     23074       201  POPC      C26           -36.6391143387       -0.8030265218      -12.5973594172  MEMB      201             0.0000000000
     23075       201  POPC      H6R           -35.6559235116       -0.8263320374      -13.1141898260  MEMB      201             0.0000000000
     23076       201  POPC      H6S           -37.1854928335       -1.7694034727      -12.5536883451  MEMB      201             0.0000000000
     23077       201  POPC      C27           -36.4439327186       -0.4841071143      -11.0919937589  MEMB      201             0.0000000000
     23078       201  POPC      H7R           -36.9492470203        0.4662528709      -10.8166860908  MEMB      201             0.0000000000
     23079       201  POPC      H7S           -35.3620933753       -0.2381068374      -11.0334396906  MEMB      201             0.0000000000
     23080       201  POPC      C28           -36.8584874980       -1.7132986321      -10.2203736536  MEMB      201             0.0000000000
     23081       201  POPC      H8R           -37.9539133443       -1.8191616177      -10.3725459506  MEMB      201             0.0000000000
     23082       201  POPC      H8S           -36.5771115558       -1.4625188260       -9.1752622822  MEMB      201             0.0000000000
     23083       201  POPC      C29           -36.0614442422       -2.9589003775      -10.6886718751  MEMB      201             0.0000000000
     23084       201  POPC      H91           -35.2410882558       -2.8127572260      -11.4067653301  MEMB      201             0.0000000000
     23085       201  POPC      C210          -36.2154528571       -4.2561569175      -10.3830148871  MEMB      201             0.0000000000
     23086       201  POPC      H101          -35.5833467768       -5.0249842014      -10.8513595116  MEMB      201             0.0000000000
     23087       201  POPC      C211          -37.3622298001       -4.8064462713       -9.5434439842  MEMB      201             0.0000000000
     23088       201  POPC      H11R          -37.6805282343       -5.7935191005       -9.9418082855  MEMB      201             0.0000000000
     23089       201  POPC      H11S          -38.2549997800       -4.1457310928       -9.5706104142  MEMB      201             0.0000000000
     23090       201  POPC      C212          -37.1392292581       -5.0443533491       -8.0322944319  MEMB      201             0.0000000000
     23091       201  POPC      H12R          -36.8228791449       -4.1458707885       -7.4604797101  MEMB      201             0.0000000000
     23092       201  POPC      H12S          -36.4614717410       -5.9194483611       -7.9365133852  MEMB      201             0.0000000000
     23093       201  POPC      C213          -38.4258452899       -5.4043678055       -7.3387802566  MEMB      201             0.0000000000
     23094       201  POPC      H13R          -38.9065602197       -6.2994923915       -7.7882094796  MEMB      201             0.0000000000
     23095       201  POPC      H13S          -39.1802884407       -4.6460499794       -7.6389321231  MEMB      201             0.0000000000
     23096       201  POPC      C214          -38.3126068101       -5.4138551736       -5.7640490141  MEMB      201             0.0000000000
     23097       201  POPC      H14R          -38.0036628382       -4.4273548792       -5.3569961942  MEMB      201             0.0000000000
     23098       201  POPC      H14S          -37.4304334963       -6.0730166671       -5.6170898132  MEMB      201             0.0000000000
     23099       201  POPC      C215          -39.5044511466       -5.8228553830       -4.9440524104  MEMB      201             0.0000000000
     23100       201  POPC      H15R          -39.8533659222       -6.8265157648       -5.2684676864  MEMB      201             0.0000000000
     23101       201  POPC      H15S          -40.2124034486       -4.9934088221       -5.1565218587  MEMB      201             0.0000000000
     23102       201  POPC      C216          -39.2127454260       -5.9071905455       -3.4626837539  MEMB      201             0.0000000000
     23103       201  POPC      H16R          -40.1630538757       -6.0436467855       -2.9035645974  MEMB      201             0.0000000000
     23104       201  POPC      H16S          -38.7500419427       -4.9678495406       -3.0913826770  MEMB      201             0.0000000000
     23105       201  POPC      C217          -38.3480580291       -7.0430106036       -2.9960069575  MEMB      201             0.0000000000
     23106       201  POPC      H17R          -37.7524663773       -6.5098427888       -2.2244346116  MEMB      201             0.0000000000
     23107       201  POPC      H17S          -37.6576767983       -7.2981952919       -3.8282176557  MEMB      201             0.0000000000
     23108       201  POPC      C218          -38.8319353743       -8.3424031828       -2.4264876796  MEMB      201             0.0000000000
     23109       201  POPC      H18R          -39.5378795282       -8.1506962666       -1.5902990196  MEMB      201             0.0000000000
     23110       201  POPC      H18S          -38.1011294554       -9.0151555376       -1.9288466258  MEMB      201             0.0000000000
     23111       201  POPC      H18T          -39.3759004807       -8.8509608967       -3.2509830845  MEMB      201             0.0000000000
     23112       201  POPC      C33           -43.0013824258       -6.1702897938      -12.3590737376  MEMB      201             0.0000000000
     23113       201  POPC      H3X           -43.8820278140       -6.3415187461      -11.7037374141  MEMB      201             0.0000000000
     23114       201  POPC      H3Y           -43.2786157946       -6.2046925299      -13.4343778052  MEMB      201             0.0000000000
     23115       201  POPC      C34           -42.4704418444       -4.8357524364      -11.9183074804  MEMB      201             0.0000000000
     23116       201  POPC      H4X           -41.6698264282       -4.4156160401      -12.5639245565  MEMB      201             0.0000000000
     23117       201  POPC      H4Y           -42.0004372652       -4.9615014909      -10.9195062102  MEMB      201             0.0000000000
     23118       201  POPC      C35           -43.6562037730       -3.8019277561      -12.0233489777  MEMB      201             0.0000000000
     23119       201  POPC      H5X           -44.1899474912       -4.0036855051      -11.0700738066  MEMB      201             0.0000000000
     23120       201  POPC      H5Y           -44.3130555681       -3.8917092398      -12.9148679000  MEMB      201             0.0000000000
     23121       201  POPC      C36           -43.3838255730       -2.3080847563      -12.1437548475  MEMB      201             0.0000000000
     23122       201  POPC      H6X           -44.3285340398       -1.8413802979      -11.7915702764  MEMB      201             0.0000000000
     23123       201  POPC      H6Y           -43.2920937088       -2.0234740851      -13.2137562812  MEMB      201             0.0000000000
     23124       201  POPC      C37           -42.2216086555       -1.7981451984      -11.3404056023  MEMB      201             0.0000000000
     23125       201  POPC      H7X           -41.4116396469       -2.5153488412      -11.5931714791  MEMB      201             0.0000000000
     23126       201  POPC      H7Y           -42.4371828307       -2.0512964852      -10.2803287726  MEMB      201             0.0000000000
     23127       201  POPC      C38           -41.8592395919       -0.2738716047      -11.5717489760  MEMB      201             0.0000000000
     23128       201  POPC      H8X           -42.7644729592        0.3560932752      -11.4375215203  MEMB      201             0.0000000000
     23129       201  POPC      H8Y           -41.5084920935       -0.1747399077      -12.6212587292  MEMB      201             0.0000000000
     23130       201  POPC      C39           -40.7588924645        0.1786706309      -10.6627452778  MEMB      201             0.0000000000
     23131       201  POPC      H9X           -40.3799851892        1.2114332884      -10.8181530140  MEMB      201             0.0000000000
     23132       201  POPC      H9Y           -39.9072597140       -0.4896646851      -10.9124868437  MEMB      201             0.0000000000
     23133       201  POPC      C310          -40.9047068308        0.0075945996       -9.1001654603  MEMB      201             0.0000000000
     23134       201  POPC      H10X          -41.1756406523       -1.0444839758       -8.8676866611  MEMB      201             0.0000000000
     23135       201  POPC      H10Y          -41.7657387079        0.6789345486       -8.8946240237  MEMB      201             0.0000000000
     23136       201  POPC      C311          -39.6631718856        0.4798885485       -8.2954063971  MEMB      201             0.0000000000
     23137       201  POPC      H11X          -39.5262854530        1.5500032708       -8.5608068573  MEMB      201             0.0000000000
     23138       201  POPC      H11Y          -38.7425557921       -0.0714805379       -8.5831196941  MEMB      201             0.0000000000
     23139       201  POPC      C312          -39.7666923809        0.3490298794       -6.7515353206  MEMB      201             0.0000000000
     23140       201  POPC      H12X          -40.8389502140        0.2840823276       -6.4680472295  MEMB      201             0.0000000000
     23141       201  POPC      H12Y          -39.2891954096        1.2466664320       -6.3036893385  MEMB      201             0.0000000000
     23142       201  POPC      C313          -39.2315070487       -0.9682786669       -6.1509562826  MEMB      201             0.0000000000
     23143       201  POPC      H13X          -38.1216926930       -0.9286972854       -6.1836136900  MEMB      201             0.0000000000
     23144       201  POPC      H13Y          -39.5255865956       -1.9178130786       -6.6471641198  MEMB      201             0.0000000000
     23145       201  POPC      C314          -39.6453114178       -1.1071129791       -4.6811469491  MEMB      201             0.0000000000
     23146       201  POPC      H14X          -39.7169692807       -2.2104821928       -4.5726912770  MEMB      201             0.0000000000
     23147       201  POPC      H14Y          -40.6643177063       -0.6687919019       -4.6193247387  MEMB      201             0.0000000000
     23148       201  POPC      C315          -38.7153749203       -0.5702873120       -3.6174458218  MEMB      201             0.0000000000
     23149       201  POPC      H15X          -38.9994210411        0.4944498340       -3.4761173063  MEMB      201             0.0000000000
     23150       201  POPC      H15Y          -37.6946303769       -0.5830330382       -4.0558966479  MEMB      201             0.0000000000
     23151       201  POPC      C316          -38.7593627594       -1.2019515559       -2.2300571177  MEMB      201             0.0000000000
     23152       201  POPC      H16X          -39.8202347664       -1.3842509273       -1.9550318411  MEMB      201             0.0000000000
     23153       201  POPC      H16Y          -38.2765040756       -0.5676835978       -1.4561892445  MEMB      201             0.0000000000
     23154       201  POPC      H16Z          -38.3224954050       -2.2234480977       -2.2264703533  MEMB      201             0.0000000000
     23155       202  POPC      N              -1.6726443331       37.9845152570      -19.7386652834  MEMB      202             0.0000000000
     23156       202  POPC      C12            -2.6767694127       37.4528177703      -18.7339867221  MEMB      202             0.0000000000
     23157       202  POPC      H12A           -2.0657655639       37.1055950975      -17.9139193253  MEMB      202             0.0000000000
     23158       202  POPC      H12B           -3.1622580551       36.6122237046      -19.2073813772  MEMB      202             0.0000000000
     23159       202  POPC      C13            -0.9080392830       39.1856339068      -19.1491346854  MEMB      202             0.0000000000
     23160       202  POPC      H13A           -1.5895227619       39.9980856259      -18.9444340028  MEMB      202             0.0000000000
     23161       202  POPC      H13B           -0.3926843768       38.8836792958      -18.2493387645  MEMB      202             0.0000000000
     23162       202  POPC      H13C           -0.2198831086       39.5827568344      -19.8806634342  MEMB      202             0.0000000000
     23163       202  POPC      C14            -0.5802798101       37.0178250089      -20.0222959103  MEMB      202             0.0000000000
     23164       202  POPC      H14A           -0.9799097432       36.1917791053      -20.5918081288  MEMB      202             0.0000000000
     23165       202  POPC      H14B            0.2208821497       37.5753966769      -20.4845225639  MEMB      202             0.0000000000
     23166       202  POPC      H14C           -0.2071919466       36.6593114965      -19.0743118884  MEMB      202             0.0000000000
     23167       202  POPC      C15            -2.4071513918       38.3855871621      -20.9774122314  MEMB      202             0.0000000000
     23168       202  POPC      H15A           -2.7186929099       39.4113784842      -20.8466678871  MEMB      202             0.0000000000
     23169       202  POPC      H15B           -3.2667293479       37.7503018359      -21.1321322590  MEMB      202             0.0000000000
     23170       202  POPC      H15C           -1.7423475177       38.4563358184      -21.8256047138  MEMB      202             0.0000000000
     23171       202  POPC      C11            -3.7180899566       38.5005048379      -18.0223874689  MEMB      202             0.0000000000
     23172       202  POPC      H11A           -3.1538864940       39.1726376151      -17.3410409703  MEMB      202             0.0000000000
     23173       202  POPC      H11B           -4.4574364212       37.8831407159      -17.4687185328  MEMB      202             0.0000000000
     23174       202  POPC      P              -5.2204691202       40.5294143741      -18.4793100227  MEMB      202             0.0000000000
     23175       202  POPC      O13            -6.1502534595       40.0244391960      -17.4332433009  MEMB      202             0.0000000000
     23176       202  POPC      O14            -5.8725032463       41.0756287112      -19.6410111481  MEMB      202             0.0000000000
     23177       202  POPC      O12            -4.4079711409       39.2473161369      -18.9455897551  MEMB      202             0.0000000000
     23178       202  POPC      O11            -4.2897033099       41.4949637587      -17.8569634628  MEMB      202             0.0000000000
     23179       202  POPC      C1             -3.3141542386       42.2210127660      -18.6479625833  MEMB      202             0.0000000000
     23180       202  POPC      HA             -3.6067294590       42.3232998849      -19.7148543820  MEMB      202             0.0000000000
     23181       202  POPC      HB             -2.4519319692       41.5292051127      -18.7588496315  MEMB      202             0.0000000000
     23182       202  POPC      C2             -2.8118628001       43.5292586639      -17.9933605627  MEMB      202             0.0000000000
     23183       202  POPC      HS             -1.8693919116       43.7666752298      -18.5316011930  MEMB      202             0.0000000000
     23184       202  POPC      O21            -2.5805449351       43.4277169122      -16.6192616234  MEMB      202             0.0000000000
     23185       202  POPC      C21            -1.6630450659       42.5394555220      -16.0831104089  MEMB      202             0.0000000000
     23186       202  POPC      O22            -0.7355921156       41.9908317875      -16.6815103237  MEMB      202             0.0000000000
     23187       202  POPC      C22            -2.0005211223       42.2252741459      -14.5978063095  MEMB      202             0.0000000000
     23188       202  POPC      H2R            -2.0485177147       41.1346225478      -14.3916601391  MEMB      202             0.0000000000
     23189       202  POPC      H2S            -2.8421011211       42.8761787625      -14.2778261346  MEMB      202             0.0000000000
     23190       202  POPC      C3             -3.8485301327       44.6581100362      -18.0760986638  MEMB      202             0.0000000000
     23191       202  POPC      HX             -3.8499855630       44.9863449280      -19.1375037438  MEMB      202             0.0000000000
     23192       202  POPC      HY             -3.4857851630       45.4668955676      -17.4063203576  MEMB      202             0.0000000000
     23193       202  POPC      O31            -5.1579171988       44.1467967840      -17.6770621664  MEMB      202             0.0000000000
     23194       202  POPC      C31            -5.3551104973       44.2855899617      -16.3940631830  MEMB      202             0.0000000000
     23195       202  POPC      O32            -4.6846586119       44.9380555612      -15.5849131393  MEMB      202             0.0000000000
     23196       202  POPC      C32            -6.5774244303       43.4783762653      -16.0223029016  MEMB      202             0.0000000000
     23197       202  POPC      H2X            -6.4695538547       42.4263951537      -16.3629212660  MEMB      202             0.0000000000
     23198       202  POPC      H2Y            -7.4767160932       43.8538620743      -16.5557872409  MEMB      202             0.0000000000
     23199       202  POPC      C23            -0.8955378754       42.8404140568      -13.6747910012  MEMB      202             0.0000000000
     23200       202  POPC      H3R            -0.8079924274       43.9073811995      -13.9718390631  MEMB      202             0.0000000000
     23201       202  POPC      H3S             0.0692379846       42.3547001342      -13.9348114167  MEMB      202             0.0000000000
     23202       202  POPC      C24            -1.0771457735       42.7142617674      -12.1442926404  MEMB      202             0.0000000000
     23203       202  POPC      H4R            -2.1343649142       42.8146309989      -11.8178956943  MEMB      202             0.0000000000
     23204       202  POPC      H4S            -0.3548670466       43.3874061040      -11.6348706668  MEMB      202             0.0000000000
     23205       202  POPC      C25            -0.6567191465       41.3200987735      -11.6701463873  MEMB      202             0.0000000000
     23206       202  POPC      H5R             0.4326492025       41.1780012004      -11.8356930197  MEMB      202             0.0000000000
     23207       202  POPC      H5S            -1.0697910698       40.5263921692      -12.3287227954  MEMB      202             0.0000000000
     23208       202  POPC      C26            -1.0232983490       41.0303467879      -10.2522646301  MEMB      202             0.0000000000
     23209       202  POPC      H6R            -1.9707045349       41.5160624993       -9.9347385123  MEMB      202             0.0000000000
     23210       202  POPC      H6S            -0.2769698398       41.5474697747       -9.6120309954  MEMB      202             0.0000000000
     23211       202  POPC      C27            -1.0348866445       39.6109864075       -9.6435957614  MEMB      202             0.0000000000
     23212       202  POPC      H7R            -1.4895715647       38.9214735970      -10.3866671127  MEMB      202             0.0000000000
     23213       202  POPC      H7S            -1.6260534926       39.4943215849       -8.7101976082  MEMB      202             0.0000000000
     23214       202  POPC      C28             0.4251308941       39.1227812685       -9.2882119153  MEMB      202             0.0000000000
     23215       202  POPC      H8R             0.8905901147       40.0094136699       -8.8070135692  MEMB      202             0.0000000000
     23216       202  POPC      H8S             0.9240362479       39.0472702756      -10.2780161292  MEMB      202             0.0000000000
     23217       202  POPC      C29             0.6928508079       37.7836134733       -8.6770133774  MEMB      202             0.0000000000
     23218       202  POPC      H91             0.4296166845       36.8850237309       -9.2542868910  MEMB      202             0.0000000000
     23219       202  POPC      C210            1.3475659249       37.5472028914       -7.5210621808  MEMB      202             0.0000000000
     23220       202  POPC      H101            1.4507694133       36.5133931305       -7.1596948155  MEMB      202             0.0000000000
     23221       202  POPC      C211            1.9550626113       38.5224999615       -6.5353598890  MEMB      202             0.0000000000
     23222       202  POPC      H11R            2.1115627351       39.5723287857       -6.8635189169  MEMB      202             0.0000000000
     23223       202  POPC      H11S            3.0056406113       38.1875947574       -6.3995464227  MEMB      202             0.0000000000
     23224       202  POPC      C212            1.2007963839       38.6556232112       -5.1452321256  MEMB      202             0.0000000000
     23225       202  POPC      H12R            1.8448596004       39.2965052613       -4.5058777344  MEMB      202             0.0000000000
     23226       202  POPC      H12S            1.1232795853       37.6828545354       -4.6141637865  MEMB      202             0.0000000000
     23227       202  POPC      C213           -0.1794051883       39.3577741600       -5.2322065204  MEMB      202             0.0000000000
     23228       202  POPC      H13R           -0.8445363389       39.1675982493       -4.3628648506  MEMB      202             0.0000000000
     23229       202  POPC      H13S           -0.6263081928       38.9392845614       -6.1592796682  MEMB      202             0.0000000000
     23230       202  POPC      C214           -0.1416339245       40.8399439273       -5.4783812103  MEMB      202             0.0000000000
     23231       202  POPC      H14R           -1.1933309222       41.1665143311       -5.6253717379  MEMB      202             0.0000000000
     23232       202  POPC      H14S            0.5036905637       41.0665445637       -6.3538977521  MEMB      202             0.0000000000
     23233       202  POPC      C215            0.4601756840       41.6901243653       -4.3528751868  MEMB      202             0.0000000000
     23234       202  POPC      H15R            1.5616025520       41.6680892086       -4.4967315762  MEMB      202             0.0000000000
     23235       202  POPC      H15S            0.2823580826       41.1658957825       -3.3896064869  MEMB      202             0.0000000000
     23236       202  POPC      C216            0.0036238984       43.1724405760       -4.2475050911  MEMB      202             0.0000000000
     23237       202  POPC      H16R           -1.0827136111       42.9870254465       -4.3882648511  MEMB      202             0.0000000000
     23238       202  POPC      H16S            0.5687626771       43.5525498242       -5.1252613638  MEMB      202             0.0000000000
     23239       202  POPC      C217            0.4028927298       43.8561699991       -2.9769146849  MEMB      202             0.0000000000
     23240       202  POPC      H17R            1.5077968667       43.8241050828       -2.8652048940  MEMB      202             0.0000000000
     23241       202  POPC      H17S            0.0112535896       43.4286830426       -2.0291831333  MEMB      202             0.0000000000
     23242       202  POPC      C218            0.1103381405       45.4103581593       -2.9363385890  MEMB      202             0.0000000000
     23243       202  POPC      H18R            0.5491655624       45.8930786336       -2.0370443792  MEMB      202             0.0000000000
     23244       202  POPC      H18S           -0.9952638503       45.4698676731       -2.8445556033  MEMB      202             0.0000000000
     23245       202  POPC      H18T            0.4370285490       45.8578127967       -3.8993443622  MEMB      202             0.0000000000
     23246       202  POPC      C33            -6.9007584668       43.4083889663      -14.5716861447  MEMB      202             0.0000000000
     23247       202  POPC      H3X            -7.9789851641       43.1961998298      -14.4082112548  MEMB      202             0.0000000000
     23248       202  POPC      H3Y            -6.5957276908       44.3099952516      -13.9986388137  MEMB      202             0.0000000000
     23249       202  POPC      C34            -6.1841837402       42.2512328574      -13.8240646263  MEMB      202             0.0000000000
     23250       202  POPC      H4X            -5.0780315173       42.3506849847      -13.7947834365  MEMB      202             0.0000000000
     23251       202  POPC      H4Y            -6.3430669993       41.2714160803      -14.3231002396  MEMB      202             0.0000000000
     23252       202  POPC      C35            -6.6094623535       41.9858587956      -12.3905301275  MEMB      202             0.0000000000
     23253       202  POPC      H5X            -7.7087027715       41.9741379338      -12.2297380052  MEMB      202             0.0000000000
     23254       202  POPC      H5Y            -6.1815661223       42.8960628577      -11.9185611702  MEMB      202             0.0000000000
     23255       202  POPC      C36            -5.9439149053       40.7704186915      -11.7386029079  MEMB      202             0.0000000000
     23256       202  POPC      H6X            -4.8439719623       40.6796595255      -11.8659175965  MEMB      202             0.0000000000
     23257       202  POPC      H6Y            -6.4111328462       39.7897488698      -11.9716595858  MEMB      202             0.0000000000
     23258       202  POPC      C37            -6.1587878170       40.7771940421      -10.2205086642  MEMB      202             0.0000000000
     23259       202  POPC      H7X            -7.2503889219       40.6235679587      -10.0822073650  MEMB      202             0.0000000000
     23260       202  POPC      H7Y            -5.7870827226       41.7304356501       -9.7875107064  MEMB      202             0.0000000000
     23261       202  POPC      C38            -5.5564791494       39.4646239415       -9.6420436447  MEMB      202             0.0000000000
     23262       202  POPC      H8X            -4.4972867202       39.3715095619       -9.9641647173  MEMB      202             0.0000000000
     23263       202  POPC      H8Y            -6.1937194189       38.6327731997      -10.0111908610  MEMB      202             0.0000000000
     23264       202  POPC      C39            -5.6534803593       39.3082639533       -8.0662897237  MEMB      202             0.0000000000
     23265       202  POPC      H9X            -5.2584329752       38.3636129839       -7.6351364138  MEMB      202             0.0000000000
     23266       202  POPC      H9Y            -6.7438527085       39.3401923309       -7.8556004055  MEMB      202             0.0000000000
     23267       202  POPC      C310           -5.0298086433       40.5255463157       -7.3328744844  MEMB      202             0.0000000000
     23268       202  POPC      H10X           -5.7742081713       41.3447744565       -7.4280364528  MEMB      202             0.0000000000
     23269       202  POPC      H10Y           -4.1086633161       40.8417971423       -7.8674752017  MEMB      202             0.0000000000
     23270       202  POPC      C311           -4.6311497589       40.2808242105       -5.9120950942  MEMB      202             0.0000000000
     23271       202  POPC      H11X           -3.7314374828       39.6427264027       -5.7791663647  MEMB      202             0.0000000000
     23272       202  POPC      H11Y           -5.4344587843       39.8112575334       -5.3050337225  MEMB      202             0.0000000000
     23273       202  POPC      C312           -4.2581250384       41.6326280288       -5.2059069966  MEMB      202             0.0000000000
     23274       202  POPC      H12X           -5.1822713941       42.2464788112       -5.1470677437  MEMB      202             0.0000000000
     23275       202  POPC      H12Y           -3.5120808172       42.2610590394       -5.7377088131  MEMB      202             0.0000000000
     23276       202  POPC      C313           -3.6041808106       41.4933039511       -3.8382429298  MEMB      202             0.0000000000
     23277       202  POPC      H13X           -3.4429873659       42.4657093736       -3.3256368900  MEMB      202             0.0000000000
     23278       202  POPC      H13Y           -2.6520764639       40.9226619598       -3.8849978758  MEMB      202             0.0000000000
     23279       202  POPC      C314           -4.5014129801       40.7843122364       -2.8311636815  MEMB      202             0.0000000000
     23280       202  POPC      H14X           -3.9379105320       40.7089123057       -1.8766462499  MEMB      202             0.0000000000
     23281       202  POPC      H14Y           -4.6840389888       39.7419448583       -3.1694512532  MEMB      202             0.0000000000
     23282       202  POPC      C315           -5.8082610654       41.4273620418       -2.3536373726  MEMB      202             0.0000000000
     23283       202  POPC      H15X           -6.6267442576       41.3015160451       -3.0942924178  MEMB      202             0.0000000000
     23284       202  POPC      H15Y           -5.6198547247       42.5162516885       -2.2389949386  MEMB      202             0.0000000000
     23285       202  POPC      C316           -6.5341583387       40.8955700334       -1.0835954201  MEMB      202             0.0000000000
     23286       202  POPC      H16X           -5.7718459432       40.7343053189       -0.2916392743  MEMB      202             0.0000000000
     23287       202  POPC      H16Y           -6.9011795432       39.8632576823       -1.2678469428  MEMB      202             0.0000000000
     23288       202  POPC      H16Z           -7.2917804943       41.6793541434       -0.8690910625  MEMB      202             0.0000000000
     23289       203  POPC      N              36.4669527566      -16.0115293964      -21.2581903224  MEMB      203             0.0000000000
     23290       203  POPC      C12            36.6826207765      -14.7625434316      -20.4205090897  MEMB      203             0.0000000000
     23291       203  POPC      H12A           35.9140962784      -14.0477021576      -20.6750127273  MEMB      203             0.0000000000
     23292       203  POPC      H12B           37.6133525693      -14.2964118033      -20.7083625409  MEMB      203             0.0000000000
     23293       203  POPC      C13            35.1384902165      -16.6168288540      -20.9396258907  MEMB      203             0.0000000000
     23294       203  POPC      H13A           34.3844916366      -15.8436349007      -20.9320651970  MEMB      203             0.0000000000
     23295       203  POPC      H13B           34.8164230747      -17.4736820912      -21.5127535510  MEMB      203             0.0000000000
     23296       203  POPC      H13C           35.1471631620      -16.8673528996      -19.8891199673  MEMB      203             0.0000000000
     23297       203  POPC      C14            36.5316729439      -15.7428795989      -22.7950062548  MEMB      203             0.0000000000
     23298       203  POPC      H14A           37.4722273427      -15.3362781927      -23.1362285834  MEMB      203             0.0000000000
     23299       203  POPC      H14B           36.4732927497      -16.7276774157      -23.2345117569  MEMB      203             0.0000000000
     23300       203  POPC      H14C           35.6975637199      -15.1030749825      -23.0426183871  MEMB      203             0.0000000000
     23301       203  POPC      C15            37.5566611372      -16.9923165724      -20.9512345413  MEMB      203             0.0000000000
     23302       203  POPC      H15A           37.6785339382      -17.1531824851      -19.8902589020  MEMB      203             0.0000000000
     23303       203  POPC      H15B           38.4516563572      -16.5994575064      -21.4106313611  MEMB      203             0.0000000000
     23304       203  POPC      H15C           37.3758611851      -17.9315030380      -21.4528719485  MEMB      203             0.0000000000
     23305       203  POPC      C11            36.5660967542      -14.8992857568      -18.8694172619  MEMB      203             0.0000000000
     23306       203  POPC      H11A           35.5490237951      -15.2605173005      -18.6059871819  MEMB      203             0.0000000000
     23307       203  POPC      H11B           36.6030022822      -13.8785365578      -18.4323471812  MEMB      203             0.0000000000
     23308       203  POPC      P              37.6647996007      -16.0102034678      -16.7126057829  MEMB      203             0.0000000000
     23309       203  POPC      O13            38.5025057402      -17.1852858140      -16.4586601964  MEMB      203             0.0000000000
     23310       203  POPC      O14            36.3079920269      -16.0433701715      -16.1842878427  MEMB      203             0.0000000000
     23311       203  POPC      O12            37.6252437557      -15.6434342081      -18.2956840911  MEMB      203             0.0000000000
     23312       203  POPC      O11            38.3438772326      -14.6924759242      -16.1147787211  MEMB      203             0.0000000000
     23313       203  POPC      C1             39.5771865588      -14.3868425096      -16.6858962785  MEMB      203             0.0000000000
     23314       203  POPC      HA             39.4992977717      -13.9689620292      -17.7123611865  MEMB      203             0.0000000000
     23315       203  POPC      HB             40.3020193204      -15.2288223127      -16.6830050116  MEMB      203             0.0000000000
     23316       203  POPC      C2             40.2294942625      -13.2207831993      -15.9192807028  MEMB      203             0.0000000000
     23317       203  POPC      HS             41.2202065352      -13.0209250024      -16.3806559411  MEMB      203             0.0000000000
     23318       203  POPC      O21            40.3545481354      -13.6116687030      -14.5352964906  MEMB      203             0.0000000000
     23319       203  POPC      C21            41.2911826810      -14.4472308608      -14.2331679909  MEMB      203             0.0000000000
     23320       203  POPC      O22            42.0814292148      -15.0108585134      -14.9780378907  MEMB      203             0.0000000000
     23321       203  POPC      C22            41.2470608119      -14.6175215426      -12.6573630595  MEMB      203             0.0000000000
     23322       203  POPC      H2R            41.7880267331      -13.7405398530      -12.2419357711  MEMB      203             0.0000000000
     23323       203  POPC      H2S            41.9054952680      -15.4570978102      -12.3476912349  MEMB      203             0.0000000000
     23324       203  POPC      C3             39.3702459890      -11.9171074972      -16.0047919937  MEMB      203             0.0000000000
     23325       203  POPC      HX             39.2162779681      -11.7909028776      -17.0978094412  MEMB      203             0.0000000000
     23326       203  POPC      HY             40.0121051015      -11.1837206435      -15.4714242099  MEMB      203             0.0000000000
     23327       203  POPC      O31            38.1060837441      -12.0324082334      -15.5106730395  MEMB      203             0.0000000000
     23328       203  POPC      C31            37.9882257254      -11.7194031102      -14.1777691200  MEMB      203             0.0000000000
     23329       203  POPC      O32            38.9087518084      -11.3909991049      -13.4190977599  MEMB      203             0.0000000000
     23330       203  POPC      C32            36.5387007752      -11.6187795103      -13.7100754127  MEMB      203             0.0000000000
     23331       203  POPC      H2X            35.8701719103      -11.7574128278      -14.5865293224  MEMB      203             0.0000000000
     23332       203  POPC      H2Y            36.3851530784      -10.7166717169      -13.0800392652  MEMB      203             0.0000000000
     23333       203  POPC      C23            39.8324948155      -14.8359129677      -12.0546273305  MEMB      203             0.0000000000
     23334       203  POPC      H3R            39.1542112651      -14.0158200323      -12.3735317791  MEMB      203             0.0000000000
     23335       203  POPC      H3S            39.9584989081      -14.7023439030      -10.9589068654  MEMB      203             0.0000000000
     23336       203  POPC      C24            39.2210973891      -16.2097625896      -12.2075548655  MEMB      203             0.0000000000
     23337       203  POPC      H4R            40.0346922154      -16.9449865442      -12.0291445271  MEMB      203             0.0000000000
     23338       203  POPC      H4S            38.8755318144      -16.2300339411      -13.2632508955  MEMB      203             0.0000000000
     23339       203  POPC      C25            38.1180062959      -16.4589971047      -11.2071792026  MEMB      203             0.0000000000
     23340       203  POPC      H5R            37.7523730687      -17.4742684410      -11.4714850334  MEMB      203             0.0000000000
     23341       203  POPC      H5S            37.3562960656      -15.6827895944      -11.4343807165  MEMB      203             0.0000000000
     23342       203  POPC      C26            38.5969969268      -16.4967685412       -9.7227775518  MEMB      203             0.0000000000
     23343       203  POPC      H6R            37.7208696922      -16.4519736143       -9.0410774571  MEMB      203             0.0000000000
     23344       203  POPC      H6S            39.2534963595      -15.6349511186       -9.4766071890  MEMB      203             0.0000000000
     23345       203  POPC      C27            39.3811016709      -17.8219732446       -9.4187875553  MEMB      203             0.0000000000
     23346       203  POPC      H7R            40.2656749438      -17.9031659690      -10.0860643669  MEMB      203             0.0000000000
     23347       203  POPC      H7S            38.7250995646      -18.6703297737       -9.7090865948  MEMB      203             0.0000000000
     23348       203  POPC      C28            39.7261020485      -17.9155059903       -7.9371145231  MEMB      203             0.0000000000
     23349       203  POPC      H8R            38.7696520974      -17.8743313952       -7.3733511842  MEMB      203             0.0000000000
     23350       203  POPC      H8S            40.2265620638      -16.9403082123       -7.7558693232  MEMB      203             0.0000000000
     23351       203  POPC      C29            40.5974365356      -19.1461435982       -7.5445148401  MEMB      203             0.0000000000
     23352       203  POPC      H91            41.6098474028      -18.9877965202       -7.9444524774  MEMB      203             0.0000000000
     23353       203  POPC      C210           40.3201316303      -20.1956535161       -6.7481275067  MEMB      203             0.0000000000
     23354       203  POPC      H101           41.0862279169      -20.9831072992       -6.6932361862  MEMB      203             0.0000000000
     23355       203  POPC      C211           39.0392464810      -20.5157537495       -5.9490263781  MEMB      203             0.0000000000
     23356       203  POPC      H11R           38.5307365473      -21.4439691937       -6.2868957468  MEMB      203             0.0000000000
     23357       203  POPC      H11S           38.3121341797      -19.6776862752       -6.0062206469  MEMB      203             0.0000000000
     23358       203  POPC      C212           39.2915238626      -20.8683011413       -4.4477107372  MEMB      203             0.0000000000
     23359       203  POPC      H12R           40.1542363458      -21.5672924494       -4.4859072373  MEMB      203             0.0000000000
     23360       203  POPC      H12S           38.4008598804      -21.2485954199       -3.9032710516  MEMB      203             0.0000000000
     23361       203  POPC      C213           39.8926987902      -19.6732387542       -3.7038815099  MEMB      203             0.0000000000
     23362       203  POPC      H13R           39.1882759813      -18.8154429595       -3.6559653850  MEMB      203             0.0000000000
     23363       203  POPC      H13S           40.8144454945      -19.3277899550       -4.2190210803  MEMB      203             0.0000000000
     23364       203  POPC      C214           40.2676073720      -20.0539352111       -2.2493988957  MEMB      203             0.0000000000
     23365       203  POPC      H14R           40.8945593106      -20.9707368425       -2.2763609930  MEMB      203             0.0000000000
     23366       203  POPC      H14S           39.3294607562      -20.2190582498       -1.6776151138  MEMB      203             0.0000000000
     23367       203  POPC      C215           41.1452373900      -18.9823636614       -1.6818817534  MEMB      203             0.0000000000
     23368       203  POPC      H15R           42.0447529702      -18.9843108462       -2.3339479204  MEMB      203             0.0000000000
     23369       203  POPC      H15S           41.4050745018      -19.2487993605       -0.6350696139  MEMB      203             0.0000000000
     23370       203  POPC      C216           40.6288477732      -17.4931907457       -1.6295327324  MEMB      203             0.0000000000
     23371       203  POPC      H16R           39.7901377970      -17.3624023034       -0.9127478413  MEMB      203             0.0000000000
     23372       203  POPC      H16S           40.3245715373      -17.0600348866       -2.6063203478  MEMB      203             0.0000000000
     23373       203  POPC      C217           41.7546771197      -16.5209793538       -1.2365567638  MEMB      203             0.0000000000
     23374       203  POPC      H17R           42.4947775505      -16.5984421241       -2.0615245971  MEMB      203             0.0000000000
     23375       203  POPC      H17S           42.2641324551      -16.7216372622       -0.2698557174  MEMB      203             0.0000000000
     23376       203  POPC      C218           41.3065439295      -15.0132533312       -1.2396944234  MEMB      203             0.0000000000
     23377       203  POPC      H18R           40.7063222871      -14.6756699455       -2.1115274639  MEMB      203             0.0000000000
     23378       203  POPC      H18S           42.1828273236      -14.3330168664       -1.1786477664  MEMB      203             0.0000000000
     23379       203  POPC      H18T           40.6743331648      -14.9217691850       -0.3307056012  MEMB      203             0.0000000000
     23380       203  POPC      C33            36.1594086562      -12.8350115662      -12.8255278100  MEMB      203             0.0000000000
     23381       203  POPC      H3X            37.0745357862      -13.3792116027      -12.5081799584  MEMB      203             0.0000000000
     23382       203  POPC      H3Y            35.4789329301      -13.3961585271      -13.5010925718  MEMB      203             0.0000000000
     23383       203  POPC      C34            35.4474881106      -12.4628093698      -11.6029282867  MEMB      203             0.0000000000
     23384       203  POPC      H4X            34.7208141155      -13.2606438895      -11.3388713269  MEMB      203             0.0000000000
     23385       203  POPC      H4Y            34.8233588376      -11.5528810345      -11.7325978542  MEMB      203             0.0000000000
     23386       203  POPC      C35            36.4813358559      -12.1918061256      -10.5104036301  MEMB      203             0.0000000000
     23387       203  POPC      H5X            37.0705788967      -11.2955991348      -10.8001039562  MEMB      203             0.0000000000
     23388       203  POPC      H5Y            37.2165350870      -13.0244762308      -10.4888745548  MEMB      203             0.0000000000
     23389       203  POPC      C36            35.8427734407      -11.7085013522       -9.2216712348  MEMB      203             0.0000000000
     23390       203  POPC      H6X            35.0888383974      -12.4351081817       -8.8502612420  MEMB      203             0.0000000000
     23391       203  POPC      H6Y            35.2546734133      -10.7670263627       -9.2673290568  MEMB      203             0.0000000000
     23392       203  POPC      C37            36.9287388905      -11.5265341966       -8.0613947077  MEMB      203             0.0000000000
     23393       203  POPC      H7X            36.3697930323      -11.0319093000       -7.2384442852  MEMB      203             0.0000000000
     23394       203  POPC      H7Y            37.6976048739      -10.7690091122       -8.3246833703  MEMB      203             0.0000000000
     23395       203  POPC      C38            37.7291459524      -12.7826755790       -7.6188187412  MEMB      203             0.0000000000
     23396       203  POPC      H8X            38.5143945400      -12.5576998395       -6.8657642783  MEMB      203             0.0000000000
     23397       203  POPC      H8Y            38.3708609409      -13.0325322022       -8.4906526577  MEMB      203             0.0000000000
     23398       203  POPC      C39            36.8108756065      -13.9614038576       -7.1092155535  MEMB      203             0.0000000000
     23399       203  POPC      H9X            36.2372378027      -14.4003024534       -7.9533893741  MEMB      203             0.0000000000
     23400       203  POPC      H9Y            36.0871664667      -13.4463786644       -6.4418962890  MEMB      203             0.0000000000
     23401       203  POPC      C310           37.4775069580      -15.1183780720       -6.3897297494  MEMB      203             0.0000000000
     23402       203  POPC      H10X           38.4182626750      -15.3619109010       -6.9282383386  MEMB      203             0.0000000000
     23403       203  POPC      H10Y           36.7790137008      -15.9822022428       -6.3743687088  MEMB      203             0.0000000000
     23404       203  POPC      C311           38.0179940162      -14.7302607818       -4.9493591859  MEMB      203             0.0000000000
     23405       203  POPC      H11X           38.7339454671      -13.9045690221       -5.1492772387  MEMB      203             0.0000000000
     23406       203  POPC      H11Y           38.5406163813      -15.6729434370       -4.6800327782  MEMB      203             0.0000000000
     23407       203  POPC      C312           36.9316175946      -14.4283847152       -3.9166475217  MEMB      203             0.0000000000
     23408       203  POPC      H12X           36.3795622035      -15.3878875898       -3.8222551080  MEMB      203             0.0000000000
     23409       203  POPC      H12Y           36.2625946820      -13.6528907096       -4.3471574938  MEMB      203             0.0000000000
     23410       203  POPC      C313           37.5230960569      -13.9058972797       -2.6673921537  MEMB      203             0.0000000000
     23411       203  POPC      H13X           38.2455356074      -13.0727032432       -2.8022616513  MEMB      203             0.0000000000
     23412       203  POPC      H13Y           38.2059623545      -14.6721221058       -2.2420527360  MEMB      203             0.0000000000
     23413       203  POPC      C314           36.5142714313      -13.6717235770       -1.5645153290  MEMB      203             0.0000000000
     23414       203  POPC      H14X           35.8037515269      -14.5250465760       -1.5281526293  MEMB      203             0.0000000000
     23415       203  POPC      H14Y           35.9043558938      -12.8114017934       -1.9140445142  MEMB      203             0.0000000000
     23416       203  POPC      C315           37.2281451408      -13.4047010811       -0.2282952148  MEMB      203             0.0000000000
     23417       203  POPC      H15X           38.0661603578      -12.6780429119       -0.2916946512  MEMB      203             0.0000000000
     23418       203  POPC      H15Y           37.7183907864      -14.3398466121        0.1173684231  MEMB      203             0.0000000000
     23419       203  POPC      C316           36.3209525911      -12.9675699449        0.9180816037  MEMB      203             0.0000000000
     23420       203  POPC      H16X           35.7685923059      -12.0221089398        0.7301398112  MEMB      203             0.0000000000
     23421       203  POPC      H16Y           36.8951475514      -12.9056665376        1.8671812999  MEMB      203             0.0000000000
     23422       203  POPC      H16Z           35.5946585689      -13.7700094156        1.1688989749  MEMB      203             0.0000000000
     23423       204  POPC      N              41.0949723939       -2.2064852066      -20.2382576279  MEMB      204             0.0000000000
     23424       204  POPC      C12            41.3067140290       -2.1570889491      -18.6864442098  MEMB      204             0.0000000000
     23425       204  POPC      H12A           41.1640530800       -3.1781792307      -18.3648505197  MEMB      204             0.0000000000
     23426       204  POPC      H12B           40.6693976281       -1.3900288768      -18.2719003472  MEMB      204             0.0000000000
     23427       204  POPC      C13            40.9213852836       -0.8308567013      -20.8069624634  MEMB      204             0.0000000000
     23428       204  POPC      H13A           40.3144513526       -0.1651020402      -20.2113099901  MEMB      204             0.0000000000
     23429       204  POPC      H13B           41.9145903951       -0.4783010065      -21.0428607543  MEMB      204             0.0000000000
     23430       204  POPC      H13C           40.3209065934       -0.8785597505      -21.7033717353  MEMB      204             0.0000000000
     23431       204  POPC      C14            42.1407172318       -2.9777336772      -20.9317668269  MEMB      204             0.0000000000
     23432       204  POPC      H14A           43.1072687944       -2.5901597553      -20.6454725471  MEMB      204             0.0000000000
     23433       204  POPC      H14B           42.0091961113       -3.9737752061      -20.5355304404  MEMB      204             0.0000000000
     23434       204  POPC      H14C           42.0761580783       -3.0644001701      -22.0063463120  MEMB      204             0.0000000000
     23435       204  POPC      C15            39.7718141660       -2.9333392865      -20.4442792556  MEMB      204             0.0000000000
     23436       204  POPC      H15A           39.3649871830       -2.5566457177      -21.3710983580  MEMB      204             0.0000000000
     23437       204  POPC      H15B           39.1708420230       -2.7810958321      -19.5599408127  MEMB      204             0.0000000000
     23438       204  POPC      H15C           39.9497887268       -3.9874255405      -20.5979915201  MEMB      204             0.0000000000
     23439       204  POPC      C11            42.7046220212       -1.6575832618      -18.2541727092  MEMB      204             0.0000000000
     23440       204  POPC      H11A           43.5383479608       -2.3262589310      -18.5576438220  MEMB      204             0.0000000000
     23441       204  POPC      H11B           42.7564161263       -1.7577838051      -17.1489133381  MEMB      204             0.0000000000
     23442       204  POPC      P              42.8139445323        0.9085715438      -17.9645282924  MEMB      204             0.0000000000
     23443       204  POPC      O13            41.4054105208        0.9326319171      -17.5086129640  MEMB      204             0.0000000000
     23444       204  POPC      O14            43.2830496487        2.0758490756      -18.7257214265  MEMB      204             0.0000000000
     23445       204  POPC      O12            43.0847235408       -0.3969970397      -18.7703705302  MEMB      204             0.0000000000
     23446       204  POPC      O11            43.6430091355        0.7906971610      -16.6688836942  MEMB      204             0.0000000000
     23447       204  POPC      C1             45.0362784887        0.2669001693      -16.8169347940  MEMB      204             0.0000000000
     23448       204  POPC      HA             45.6089673074        1.0662170602      -17.3340815529  MEMB      204             0.0000000000
     23449       204  POPC      HB             45.1436806252       -0.6739598239      -17.3979411192  MEMB      204             0.0000000000
     23450       204  POPC      C2             45.7787311995        0.2657725538      -15.4567698342  MEMB      204             0.0000000000
     23451       204  POPC      HS             46.6843121224       -0.3704724933      -15.5539111287  MEMB      204             0.0000000000
     23452       204  POPC      O21            44.8933069467       -0.1719619594      -14.4428980525  MEMB      204             0.0000000000
     23453       204  POPC      C21            44.5070659055       -1.4476553690      -14.5443840514  MEMB      204             0.0000000000
     23454       204  POPC      O22            44.9786849330       -2.3375644313      -15.2203443560  MEMB      204             0.0000000000
     23455       204  POPC      C22            43.5405314697       -1.7455645806      -13.4376502986  MEMB      204             0.0000000000
     23456       204  POPC      H2R            42.7706220834       -0.9450678335      -13.4099787017  MEMB      204             0.0000000000
     23457       204  POPC      H2S            43.9603357575       -1.6327412413      -12.4152237054  MEMB      204             0.0000000000
     23458       204  POPC      C3             46.2546291331        1.7497430900      -15.1181443689  MEMB      204             0.0000000000
     23459       204  POPC      HX             45.6547418080        2.5931101890      -15.5221100331  MEMB      204             0.0000000000
     23460       204  POPC      HY             47.1995071134        1.8762717120      -15.6886854165  MEMB      204             0.0000000000
     23461       204  POPC      O31            46.5662247190        1.8886828847      -13.7912800389  MEMB      204             0.0000000000
     23462       204  POPC      C31            45.6259712205        2.3928806010      -12.9645233532  MEMB      204             0.0000000000
     23463       204  POPC      O32            44.4765758172        2.6246498731      -13.2539085107  MEMB      204             0.0000000000
     23464       204  POPC      C32            46.2386439362        2.2184224413      -11.5194609683  MEMB      204             0.0000000000
     23465       204  POPC      H2X            47.1172782652        2.8766300913      -11.3489187270  MEMB      204             0.0000000000
     23466       204  POPC      H2Y            46.4917744637        1.1547539347      -11.3223427843  MEMB      204             0.0000000000
     23467       204  POPC      C23            42.8875906576       -3.1085723566      -13.5432546127  MEMB      204             0.0000000000
     23468       204  POPC      H3R            43.6539956126       -3.8992798957      -13.6906514775  MEMB      204             0.0000000000
     23469       204  POPC      H3S            42.2404039275       -3.0599229457      -14.4449774865  MEMB      204             0.0000000000
     23470       204  POPC      C24            41.9965540057       -3.4404627012      -12.3216442631  MEMB      204             0.0000000000
     23471       204  POPC      H4R            41.5464961764       -4.4477724009      -12.4523968955  MEMB      204             0.0000000000
     23472       204  POPC      H4S            41.1595509051       -2.7102034835      -12.3000042172  MEMB      204             0.0000000000
     23473       204  POPC      C25            42.7731409077       -3.6129452356      -11.0434498470  MEMB      204             0.0000000000
     23474       204  POPC      H5R            43.0284099447       -2.5776317435      -10.7315448702  MEMB      204             0.0000000000
     23475       204  POPC      H5S            43.7290783450       -4.1491918687      -11.2249555540  MEMB      204             0.0000000000
     23476       204  POPC      C26            41.8919236640       -4.2412087002       -9.9434601487  MEMB      204             0.0000000000
     23477       204  POPC      H6R            41.8754442593       -5.3502893142      -10.0066189499  MEMB      204             0.0000000000
     23478       204  POPC      H6S            40.8342935277       -3.9260254948      -10.0715186507  MEMB      204             0.0000000000
     23479       204  POPC      C27            42.3565738361       -3.9780443623       -8.4656478267  MEMB      204             0.0000000000
     23480       204  POPC      H7R            42.2473965216       -2.9010098592       -8.2158517523  MEMB      204             0.0000000000
     23481       204  POPC      H7S            43.3794317350       -4.4056910990       -8.3935299379  MEMB      204             0.0000000000
     23482       204  POPC      C28            41.5851425905       -4.7766933045       -7.3455318173  MEMB      204             0.0000000000
     23483       204  POPC      H8R            42.0474274578       -4.3638524526       -6.4234814770  MEMB      204             0.0000000000
     23484       204  POPC      H8S            41.7833169680       -5.8695929077       -7.3206685250  MEMB      204             0.0000000000
     23485       204  POPC      C29            40.1142620496       -4.7244433265       -7.2079395628  MEMB      204             0.0000000000
     23486       204  POPC      H91            39.5658917871       -5.6035437718       -7.5773606105  MEMB      204             0.0000000000
     23487       204  POPC      C210           39.3770488708       -3.7046129422       -6.8127031792  MEMB      204             0.0000000000
     23488       204  POPC      H101           38.2931277466       -3.7836029168       -6.6427742686  MEMB      204             0.0000000000
     23489       204  POPC      C211           39.9773838611       -2.3583252156       -6.3832517716  MEMB      204             0.0000000000
     23490       204  POPC      H11R           39.9359491355       -1.8111808395       -7.3492933701  MEMB      204             0.0000000000
     23491       204  POPC      H11S           41.0804528809       -2.4774672666       -6.3252437648  MEMB      204             0.0000000000
     23492       204  POPC      C212           39.3303217726       -1.8866947797       -5.0673316200  MEMB      204             0.0000000000
     23493       204  POPC      H12R           39.6508297831       -2.6245885186       -4.3011011018  MEMB      204             0.0000000000
     23494       204  POPC      H12S           38.2277183164       -1.8123818241       -5.1816302273  MEMB      204             0.0000000000
     23495       204  POPC      C213           39.8735489642       -0.6237367930       -4.4786342810  MEMB      204             0.0000000000
     23496       204  POPC      H13R           39.6011353724        0.1501509396       -5.2277733748  MEMB      204             0.0000000000
     23497       204  POPC      H13S           40.9832903969       -0.6656846952       -4.5108094905  MEMB      204             0.0000000000
     23498       204  POPC      C214           39.3620111472       -0.3653716546       -3.0205801551  MEMB      204             0.0000000000
     23499       204  POPC      H14R           39.9163098149       -1.0531655235       -2.3467737934  MEMB      204             0.0000000000
     23500       204  POPC      H14S           38.2770208368       -0.5225607788       -2.8405548419  MEMB      204             0.0000000000
     23501       204  POPC      C215           39.6648177011        1.1036570012       -2.5370404388  MEMB      204             0.0000000000
     23502       204  POPC      H15R           40.6519464904        1.0220570734       -2.0338112955  MEMB      204             0.0000000000
     23503       204  POPC      H15S           39.0753351931        1.2376664170       -1.6049075823  MEMB      204             0.0000000000
     23504       204  POPC      C216           39.4813603463        2.1771351196       -3.5775724817  MEMB      204             0.0000000000
     23505       204  POPC      H16R           38.4036877104        2.3757659354       -3.7605704863  MEMB      204             0.0000000000
     23506       204  POPC      H16S           40.0113671978        1.9408899681       -4.5249914377  MEMB      204             0.0000000000
     23507       204  POPC      C217           40.1315468213        3.5053818124       -3.1873198383  MEMB      204             0.0000000000
     23508       204  POPC      H17R           39.7101648483        4.1935897800       -3.9509480869  MEMB      204             0.0000000000
     23509       204  POPC      H17S           41.2420832064        3.4737356407       -3.1926765912  MEMB      204             0.0000000000
     23510       204  POPC      C218           39.8350547537        4.1339751116       -1.8131102345  MEMB      204             0.0000000000
     23511       204  POPC      H18R           39.9250982306        3.4065970000       -0.9781648305  MEMB      204             0.0000000000
     23512       204  POPC      H18S           38.7986267526        4.5146044664       -1.9366386380  MEMB      204             0.0000000000
     23513       204  POPC      H18T           40.4653581767        5.0268382781       -1.6135260284  MEMB      204             0.0000000000
     23514       204  POPC      C33            45.1673245428        2.6993233229      -10.4793545931  MEMB      204             0.0000000000
     23515       204  POPC      H3X            44.2916332047        2.0216158308      -10.5698995768  MEMB      204             0.0000000000
     23516       204  POPC      H3Y            44.7779127146        3.7173027841      -10.6947550142  MEMB      204             0.0000000000
     23517       204  POPC      C34            45.6148576604        2.6095252550       -8.9962187715  MEMB      204             0.0000000000
     23518       204  POPC      H4X            45.6066381959        3.6431845730       -8.5890305021  MEMB      204             0.0000000000
     23519       204  POPC      H4Y            46.6510842764        2.2254581577       -8.8819898949  MEMB      204             0.0000000000
     23520       204  POPC      C35            44.6704527998        1.7313283203       -8.1292487360  MEMB      204             0.0000000000
     23521       204  POPC      H5X            44.4543174866        0.8172725717       -8.7226358855  MEMB      204             0.0000000000
     23522       204  POPC      H5Y            43.7178434251        2.2907419108       -8.2472010683  MEMB      204             0.0000000000
     23523       204  POPC      C36            45.1951332012        1.4576848839       -6.7350919514  MEMB      204             0.0000000000
     23524       204  POPC      H6X            45.5458606430        2.4487606470       -6.3758144937  MEMB      204             0.0000000000
     23525       204  POPC      H6Y            46.1660398108        0.9276814524       -6.8388116888  MEMB      204             0.0000000000
     23526       204  POPC      C37            44.2884421643        0.7339608516       -5.7209164801  MEMB      204             0.0000000000
     23527       204  POPC      H7X            43.4287577325        1.4300828492       -5.6175829038  MEMB      204             0.0000000000
     23528       204  POPC      H7Y            44.7854953794        0.6693493187       -4.7294105007  MEMB      204             0.0000000000
     23529       204  POPC      C38            43.8601646482       -0.7361894406       -5.9817499209  MEMB      204             0.0000000000
     23530       204  POPC      H8X            43.2051946490       -0.9843320125       -6.8441656821  MEMB      204             0.0000000000
     23531       204  POPC      H8Y            43.3801702456       -1.0164407812       -5.0197797247  MEMB      204             0.0000000000
     23532       204  POPC      C39            45.0881041340       -1.6714750719       -6.0163773567  MEMB      204             0.0000000000
     23533       204  POPC      H9X            45.7890238687       -1.4050059420       -6.8361503981  MEMB      204             0.0000000000
     23534       204  POPC      H9Y            44.7731449842       -2.7158785607       -6.2269559266  MEMB      204             0.0000000000
     23535       204  POPC      C310           46.0292705549       -1.7012865165       -4.7534709674  MEMB      204             0.0000000000
     23536       204  POPC      H10X           46.5555073156       -0.7288456298       -4.6450533465  MEMB      204             0.0000000000
     23537       204  POPC      H10Y           46.7964989927       -2.4653617308       -5.0022084924  MEMB      204             0.0000000000
     23538       204  POPC      C311           45.4339839581       -2.1218507779       -3.4139067796  MEMB      204             0.0000000000
     23539       204  POPC      H11X           45.1911083360       -3.2042306581       -3.4754391582  MEMB      204             0.0000000000
     23540       204  POPC      H11Y           44.4819947717       -1.5549914520       -3.3320062891  MEMB      204             0.0000000000
     23541       204  POPC      C312           46.3497285266       -1.7821951041       -2.2387457107  MEMB      204             0.0000000000
     23542       204  POPC      H12X           46.2055834372       -0.7089271596       -1.9904724177  MEMB      204             0.0000000000
     23543       204  POPC      H12Y           47.4171028530       -1.9142479384       -2.5173025889  MEMB      204             0.0000000000
     23544       204  POPC      C313           45.9855745350       -2.4933840478       -0.9333137981  MEMB      204             0.0000000000
     23545       204  POPC      H13X           46.6764046283       -2.1328632321       -0.1414167013  MEMB      204             0.0000000000
     23546       204  POPC      H13Y           46.2100087198       -3.5812579458       -0.9552225643  MEMB      204             0.0000000000
     23547       204  POPC      C314           44.5800968767       -2.1530133127       -0.5128635709  MEMB      204             0.0000000000
     23548       204  POPC      H14X           44.1824430505       -2.9592067808        0.1400100280  MEMB      204             0.0000000000
     23549       204  POPC      H14Y           43.9666334175       -1.9501439031       -1.4166496893  MEMB      204             0.0000000000
     23550       204  POPC      C315           44.4673191309       -0.7762007337        0.2590063625  MEMB      204             0.0000000000
     23551       204  POPC      H15X           44.3339334371       -0.0354906333       -0.5582320321  MEMB      204             0.0000000000
     23552       204  POPC      H15Y           45.3955739297       -0.4293392129        0.7613516094  MEMB      204             0.0000000000
     23553       204  POPC      C316           43.1986718822       -0.6700629917        1.1281513167  MEMB      204             0.0000000000
     23554       204  POPC      H16X           43.1176435156       -1.5838528531        1.7548438363  MEMB      204             0.0000000000
     23555       204  POPC      H16Y           42.2518779473       -0.4398919259        0.5943675640  MEMB      204             0.0000000000
     23556       204  POPC      H16Z           43.4512907711        0.1559993555        1.8268098808  MEMB      204             0.0000000000
     23557       205  POPC      N              -2.5992309784      -44.5854158873      -18.2232602890  MEMB      205             0.0000000000
     23558       205  POPC      C12            -3.3562221084      -43.3994290736      -17.6672249808  MEMB      205             0.0000000000
     23559       205  POPC      H12A           -2.7062319436      -42.6846559921      -17.1845114440  MEMB      205             0.0000000000
     23560       205  POPC      H12B           -4.0413375375      -43.7794809772      -16.9238695010  MEMB      205             0.0000000000
     23561       205  POPC      C13            -1.5640678992      -44.2253329569      -19.2171662883  MEMB      205             0.0000000000
     23562       205  POPC      H13A           -0.8400542457      -43.5432302899      -18.7965238540  MEMB      205             0.0000000000
     23563       205  POPC      H13B           -1.0580031544      -45.0021579525      -19.7710987394  MEMB      205             0.0000000000
     23564       205  POPC      H13C           -2.0255618885      -43.5154956955      -19.8876544330  MEMB      205             0.0000000000
     23565       205  POPC      C14            -1.9399727250      -45.2375489879      -17.0218035503  MEMB      205             0.0000000000
     23566       205  POPC      H14A           -1.2860110469      -46.0693591230      -17.2381966060  MEMB      205             0.0000000000
     23567       205  POPC      H14B           -1.4028112627      -44.4640501597      -16.4930716688  MEMB      205             0.0000000000
     23568       205  POPC      H14C           -2.7826141671      -45.4917627502      -16.3959194655  MEMB      205             0.0000000000
     23569       205  POPC      C15            -3.5736078832      -45.5217612862      -18.8595413562  MEMB      205             0.0000000000
     23570       205  POPC      H15A           -4.4387445984      -45.7596192766      -18.2584074316  MEMB      205             0.0000000000
     23571       205  POPC      H15B           -3.1090755659      -46.4462296027      -19.1693288825  MEMB      205             0.0000000000
     23572       205  POPC      H15C           -3.9388883368      -45.1229996427      -19.7943992840  MEMB      205             0.0000000000
     23573       205  POPC      C11            -4.3270556277      -42.5707358206      -18.6816201393  MEMB      205             0.0000000000
     23574       205  POPC      H11A           -5.0262020068      -41.8595879666      -18.1919425864  MEMB      205             0.0000000000
     23575       205  POPC      H11B           -5.0173402511      -43.4097935110      -18.9135907132  MEMB      205             0.0000000000
     23576       205  POPC      P              -2.9914022097      -40.7300320198      -19.9343287740  MEMB      205             0.0000000000
     23577       205  POPC      O13            -3.7933360643      -39.7335517119      -20.7419167570  MEMB      205             0.0000000000
     23578       205  POPC      O14            -1.6032604926      -41.0327506174      -20.3376204486  MEMB      205             0.0000000000
     23579       205  POPC      O12            -3.7495720039      -42.1445293861      -19.9399049752  MEMB      205             0.0000000000
     23580       205  POPC      O11            -2.9853931942      -40.1673005169      -18.3756124454  MEMB      205             0.0000000000
     23581       205  POPC      C1             -4.0518816750      -39.2909199820      -18.0018722997  MEMB      205             0.0000000000
     23582       205  POPC      HA             -5.0773800501      -39.6340102006      -18.2567507096  MEMB      205             0.0000000000
     23583       205  POPC      HB             -3.8868115223      -38.2594098905      -18.3801045117  MEMB      205             0.0000000000
     23584       205  POPC      C2             -4.0392106231      -39.2191048030      -16.4263785339  MEMB      205             0.0000000000
     23585       205  POPC      HS             -3.2143643969      -38.5693334649      -16.0634090151  MEMB      205             0.0000000000
     23586       205  POPC      O21            -3.9375522315      -40.5197750133      -15.7710624607  MEMB      205             0.0000000000
     23587       205  POPC      C21            -2.9218340820      -40.7235573260      -14.8811410256  MEMB      205             0.0000000000
     23588       205  POPC      O22            -2.1368394423      -39.8962103023      -14.5111058730  MEMB      205             0.0000000000
     23589       205  POPC      C22            -3.1174842564      -42.1580873623      -14.3384650965  MEMB      205             0.0000000000
     23590       205  POPC      H2R            -2.8917296193      -42.8935256820      -15.1400173664  MEMB      205             0.0000000000
     23591       205  POPC      H2S            -4.1667320599      -42.2780717944      -13.9934956595  MEMB      205             0.0000000000
     23592       205  POPC      C3             -5.3663535699      -38.5028935053      -16.0325024920  MEMB      205             0.0000000000
     23593       205  POPC      HX             -6.2001094813      -38.8556762480      -16.6764874631  MEMB      205             0.0000000000
     23594       205  POPC      HY             -5.3309326901      -37.4054413575      -16.2018104905  MEMB      205             0.0000000000
     23595       205  POPC      O31            -5.6589534673      -38.5489066398      -14.6478796598  MEMB      205             0.0000000000
     23596       205  POPC      C31            -6.4209063182      -39.6376815333      -14.2879529250  MEMB      205             0.0000000000
     23597       205  POPC      O32            -7.0712323846      -40.3405973999      -15.0105670427  MEMB      205             0.0000000000
     23598       205  POPC      C32            -6.6385144149      -39.6131353389      -12.8045044751  MEMB      205             0.0000000000
     23599       205  POPC      H2X            -6.8294812792      -38.5618651719      -12.5000643271  MEMB      205             0.0000000000
     23600       205  POPC      H2Y            -5.6976158306      -40.0055572082      -12.3628745602  MEMB      205             0.0000000000
     23601       205  POPC      C23            -2.2369414702      -42.4616432600      -13.0681061778  MEMB      205             0.0000000000
     23602       205  POPC      H3R            -2.6758994368      -42.0595094623      -12.1300626417  MEMB      205             0.0000000000
     23603       205  POPC      H3S            -1.2588368099      -41.9506239443      -13.1965256720  MEMB      205             0.0000000000
     23604       205  POPC      C24            -1.7348133193      -43.8913449569      -12.9737098426  MEMB      205             0.0000000000
     23605       205  POPC      H4R            -1.3103042807      -44.2208683106      -13.9460919747  MEMB      205             0.0000000000
     23606       205  POPC      H4S            -2.5686097684      -44.6127183590      -12.8368710485  MEMB      205             0.0000000000
     23607       205  POPC      C25            -0.5957394555      -44.2379227768      -11.9259965400  MEMB      205             0.0000000000
     23608       205  POPC      H5R             0.3511718127      -43.7571273142      -12.2523643545  MEMB      205             0.0000000000
     23609       205  POPC      H5S            -0.5272347528      -45.3423713399      -11.8268937496  MEMB      205             0.0000000000
     23610       205  POPC      C26            -0.9495122749      -43.6804163382      -10.5625776493  MEMB      205             0.0000000000
     23611       205  POPC      H6R            -1.2290439410      -42.6060824842      -10.5179714125  MEMB      205             0.0000000000
     23612       205  POPC      H6S            -0.0728391691      -43.8052036898       -9.8916123992  MEMB      205             0.0000000000
     23613       205  POPC      C27            -2.1501243578      -44.4561099304       -9.9418933869  MEMB      205             0.0000000000
     23614       205  POPC      H7R            -1.8260936812      -45.5131707072       -9.8325880479  MEMB      205             0.0000000000
     23615       205  POPC      H7S            -3.0196518152      -44.4888896415      -10.6326665343  MEMB      205             0.0000000000
     23616       205  POPC      C28            -2.5432123123      -43.9972735343       -8.5343800327  MEMB      205             0.0000000000
     23617       205  POPC      H8R            -1.6419368317      -44.1183248247       -7.8961244418  MEMB      205             0.0000000000
     23618       205  POPC      H8S            -3.1049589483      -44.8298350779       -8.0594029547  MEMB      205             0.0000000000
     23619       205  POPC      C29            -3.1742625039      -42.6550752493       -8.5198052049  MEMB      205             0.0000000000
     23620       205  POPC      H91            -4.2078430232      -42.6115213412       -8.8937228660  MEMB      205             0.0000000000
     23621       205  POPC      C210           -2.6073724597      -41.5232499085       -8.0802382550  MEMB      205             0.0000000000
     23622       205  POPC      H101           -3.2031927507      -40.6236051574       -8.2938682362  MEMB      205             0.0000000000
     23623       205  POPC      C211           -1.1943831617      -41.2308366654       -7.5191118512  MEMB      205             0.0000000000
     23624       205  POPC      H11R           -0.5577118977      -40.5475852535       -8.1208906539  MEMB      205             0.0000000000
     23625       205  POPC      H11S           -0.5935311613      -42.1648636700       -7.5489690820  MEMB      205             0.0000000000
     23626       205  POPC      C212           -1.1425948162      -40.7118103926       -6.1065242234  MEMB      205             0.0000000000
     23627       205  POPC      H12R           -0.9504398548      -39.6175962155       -6.1161435596  MEMB      205             0.0000000000
     23628       205  POPC      H12S           -0.2108755163      -41.0786794610       -5.6252475286  MEMB      205             0.0000000000
     23629       205  POPC      C213           -2.2338036644      -41.1244301472       -4.9630857439  MEMB      205             0.0000000000
     23630       205  POPC      H13R           -3.1935186902      -40.7166542405       -5.3464747569  MEMB      205             0.0000000000
     23631       205  POPC      H13S           -1.8479109101      -40.5374714962       -4.1023375852  MEMB      205             0.0000000000
     23632       205  POPC      C214           -2.2774485710      -42.5869921479       -4.5805481497  MEMB      205             0.0000000000
     23633       205  POPC      H14R           -2.4692527338      -43.1826297964       -5.4985616323  MEMB      205             0.0000000000
     23634       205  POPC      H14S           -3.2180624816      -42.6479088537       -3.9924535600  MEMB      205             0.0000000000
     23635       205  POPC      C215           -1.0136263072      -43.0102325471       -3.8039778081  MEMB      205             0.0000000000
     23636       205  POPC      H15R           -1.2821900767      -43.3450115025       -2.7792246750  MEMB      205             0.0000000000
     23637       205  POPC      H15S           -0.3842311904      -42.1668035042       -3.4478727627  MEMB      205             0.0000000000
     23638       205  POPC      C216           -0.0963357078      -44.0255611953       -4.5525757414  MEMB      205             0.0000000000
     23639       205  POPC      H16R            0.0952012920      -43.5175969367       -5.5219085223  MEMB      205             0.0000000000
     23640       205  POPC      H16S           -0.7401112083      -44.9113609857       -4.7402799995  MEMB      205             0.0000000000
     23641       205  POPC      C217            1.1572370644      -44.3181488255       -3.7219372526  MEMB      205             0.0000000000
     23642       205  POPC      H17R            1.8509331978      -43.4690643097       -3.9012744017  MEMB      205             0.0000000000
     23643       205  POPC      H17S            1.5624265945      -45.2660530809       -4.1362076710  MEMB      205             0.0000000000
     23644       205  POPC      C218            1.0494567478      -44.4543812978       -2.1786288002  MEMB      205             0.0000000000
     23645       205  POPC      H18R            0.3000089373      -45.2744514082       -2.1670436123  MEMB      205             0.0000000000
     23646       205  POPC      H18S            0.7871874126      -43.5050019615       -1.6646100057  MEMB      205             0.0000000000
     23647       205  POPC      H18T            2.0105405571      -44.8524156409       -1.7884908806  MEMB      205             0.0000000000
     23648       205  POPC      C33            -7.6965793686      -40.6194319330      -12.2845435176  MEMB      205             0.0000000000
     23649       205  POPC      H3X            -7.7077152819      -41.5880413180      -12.8285960619  MEMB      205             0.0000000000
     23650       205  POPC      H3Y            -8.7363946543      -40.2304534325      -12.3269750029  MEMB      205             0.0000000000
     23651       205  POPC      C34            -7.4192208366      -41.1879835054      -10.8765094114  MEMB      205             0.0000000000
     23652       205  POPC      H4X            -6.5935940437      -41.9195630887      -10.7443989571  MEMB      205             0.0000000000
     23653       205  POPC      H4Y            -8.3407593824      -41.7919984292      -10.7341938055  MEMB      205             0.0000000000
     23654       205  POPC      C35            -7.2366363254      -40.1079500015       -9.7452599776  MEMB      205             0.0000000000
     23655       205  POPC      H5X            -8.1206909560      -39.4350762763       -9.7421363629  MEMB      205             0.0000000000
     23656       205  POPC      H5Y            -6.3535980894      -39.4926698347      -10.0209319847  MEMB      205             0.0000000000
     23657       205  POPC      C36            -6.9561390425      -40.7245306716       -8.3851358501  MEMB      205             0.0000000000
     23658       205  POPC      H6X            -5.9868481281      -41.2670842934       -8.4059108982  MEMB      205             0.0000000000
     23659       205  POPC      H6Y            -7.7898580876      -41.4072609202       -8.1147410023  MEMB      205             0.0000000000
     23660       205  POPC      C37            -6.8389640811      -39.7345550995       -7.1859243242  MEMB      205             0.0000000000
     23661       205  POPC      H7X            -7.7074172838      -39.0511100436       -7.3000013211  MEMB      205             0.0000000000
     23662       205  POPC      H7Y            -5.9392580070      -39.0857156048       -7.2480298053  MEMB      205             0.0000000000
     23663       205  POPC      C38            -7.0893140294      -40.3531406647       -5.7821305042  MEMB      205             0.0000000000
     23664       205  POPC      H8X            -6.5000594031      -41.2754463421       -5.5912060468  MEMB      205             0.0000000000
     23665       205  POPC      H8Y            -8.1302840925      -40.7405424717       -5.7571854805  MEMB      205             0.0000000000
     23666       205  POPC      C39            -6.8850787164      -39.3812361428       -4.5675642740  MEMB      205             0.0000000000
     23667       205  POPC      H9X            -7.1715730722      -39.9320901351       -3.6462593155  MEMB      205             0.0000000000
     23668       205  POPC      H9Y            -7.4078665039      -38.4080069122       -4.6852008646  MEMB      205             0.0000000000
     23669       205  POPC      C310           -5.3688069134      -39.0645220224       -4.3597273434  MEMB      205             0.0000000000
     23670       205  POPC      H10X           -5.0190206355      -38.3006913340       -5.0867300230  MEMB      205             0.0000000000
     23671       205  POPC      H10Y           -4.6790426510      -39.9315462376       -4.2771699331  MEMB      205             0.0000000000
     23672       205  POPC      C311           -5.2726986773      -38.3568316383       -2.9945248881  MEMB      205             0.0000000000
     23673       205  POPC      H11X           -6.1562268574      -37.6984329657       -2.8523618567  MEMB      205             0.0000000000
     23674       205  POPC      H11Y           -4.4748458047      -37.5841891641       -3.0223687670  MEMB      205             0.0000000000
     23675       205  POPC      C312           -5.0187920705      -39.1760393721       -1.7306474175  MEMB      205             0.0000000000
     23676       205  POPC      H12X           -5.9151605968      -39.8279646187       -1.6542400885  MEMB      205             0.0000000000
     23677       205  POPC      H12Y           -5.1879099007      -38.4894863600       -0.8736956020  MEMB      205             0.0000000000
     23678       205  POPC      C313           -3.7886661181      -40.0976523033       -1.7029480452  MEMB      205             0.0000000000
     23679       205  POPC      H13X           -2.8912038869      -39.4678544683       -1.8824972380  MEMB      205             0.0000000000
     23680       205  POPC      H13Y           -3.9278182817      -40.8134317586       -2.5411709957  MEMB      205             0.0000000000
     23681       205  POPC      C314           -3.6385443745      -40.9827813467       -0.3996007876  MEMB      205             0.0000000000
     23682       205  POPC      H14X           -4.2025755145      -40.5297852246        0.4435970966  MEMB      205             0.0000000000
     23683       205  POPC      H14Y           -2.5657430675      -41.2602877432       -0.3195474100  MEMB      205             0.0000000000
     23684       205  POPC      C315           -4.3064666086      -42.3478291805       -0.5338284789  MEMB      205             0.0000000000
     23685       205  POPC      H15X           -3.8324101366      -42.9203527688       -1.3595453277  MEMB      205             0.0000000000
     23686       205  POPC      H15Y           -5.3916307842      -42.2938004303       -0.7658219359  MEMB      205             0.0000000000
     23687       205  POPC      C316           -4.0977787906      -43.1665920329        0.6907876138  MEMB      205             0.0000000000
     23688       205  POPC      H16X           -3.0544574140      -43.5102631637        0.8571949456  MEMB      205             0.0000000000
     23689       205  POPC      H16Y           -4.7150817895      -44.0886164220        0.6348502545  MEMB      205             0.0000000000
     23690       205  POPC      H16Z           -4.5123891110      -42.6032648046        1.5539680906  MEMB      205             0.0000000000
     23691       206  POPC      N               5.4698887660       44.7331168779      -18.9914070048  MEMB      206             0.0000000000
     23692       206  POPC      C12             4.1740282644       44.3382550099      -18.3029013835  MEMB      206             0.0000000000
     23693       206  POPC      H12A            3.3031828537       44.7453616816      -18.7951333965  MEMB      206             0.0000000000
     23694       206  POPC      H12B            4.1817852076       44.8641052647      -17.3595979993  MEMB      206             0.0000000000
     23695       206  POPC      C13             5.7328113459       43.8829097223      -20.1764725363  MEMB      206             0.0000000000
     23696       206  POPC      H13A            6.5667841285       44.3078725069      -20.7152636069  MEMB      206             0.0000000000
     23697       206  POPC      H13B            5.9109930919       42.8742151072      -19.8341474287  MEMB      206             0.0000000000
     23698       206  POPC      H13C            4.8469465469       43.8866685649      -20.7942342428  MEMB      206             0.0000000000
     23699       206  POPC      C14             5.2811057938       46.1987524375      -19.4523614369  MEMB      206             0.0000000000
     23700       206  POPC      H14A            4.3959438965       46.2934104092      -20.0638582565  MEMB      206             0.0000000000
     23701       206  POPC      H14B            5.2637960106       46.7962174642      -18.5528416517  MEMB      206             0.0000000000
     23702       206  POPC      H14C            6.1568498949       46.5558742088      -19.9738366866  MEMB      206             0.0000000000
     23703       206  POPC      C15             6.5034133500       44.6445640757      -17.8755336406  MEMB      206             0.0000000000
     23704       206  POPC      H15A            7.4932381883       44.8944751299      -18.2279411945  MEMB      206             0.0000000000
     23705       206  POPC      H15B            6.5047855414       43.6459244615      -17.4642952348  MEMB      206             0.0000000000
     23706       206  POPC      H15C            6.3054206042       45.3175793067      -17.0544066788  MEMB      206             0.0000000000
     23707       206  POPC      C11             3.8900674327       42.7955476328      -18.0259787469  MEMB      206             0.0000000000
     23708       206  POPC      H11A            3.0154285172       42.8428367694      -17.3425378248  MEMB      206             0.0000000000
     23709       206  POPC      H11B            4.7802655112       42.3875532774      -17.5011844883  MEMB      206             0.0000000000
     23710       206  POPC      P               3.3970212357       40.6893028963      -19.2883228287  MEMB      206             0.0000000000
     23711       206  POPC      O13             4.6806678866       39.9594352790      -19.2275643961  MEMB      206             0.0000000000
     23712       206  POPC      O14             2.5830405221       40.3417809544      -20.4651868836  MEMB      206             0.0000000000
     23713       206  POPC      O12             3.5457991687       42.2140543107      -19.1998342168  MEMB      206             0.0000000000
     23714       206  POPC      O11             2.6315066422       40.3182381284      -17.9944369509  MEMB      206             0.0000000000
     23715       206  POPC      C1              2.9297034799       39.1605067669      -17.1010927577  MEMB      206             0.0000000000
     23716       206  POPC      HA              3.9494936870       39.2670936494      -16.6733218199  MEMB      206             0.0000000000
     23717       206  POPC      HB              2.8465288524       38.1711416852      -17.5996506080  MEMB      206             0.0000000000
     23718       206  POPC      C2              1.9261554204       38.9642397928      -15.9153793746  MEMB      206             0.0000000000
     23719       206  POPC      HS              0.9321240214       38.7510975726      -16.3634786533  MEMB      206             0.0000000000
     23720       206  POPC      O21             1.9316266096       40.1284312357      -15.1794877947  MEMB      206             0.0000000000
     23721       206  POPC      C21             0.8508440438       41.0353007705      -15.4747023765  MEMB      206             0.0000000000
     23722       206  POPC      O22             0.0837578899       40.8116924973      -16.3886078509  MEMB      206             0.0000000000
     23723       206  POPC      C22             0.7836178493       42.0831455465      -14.4007144964  MEMB      206             0.0000000000
     23724       206  POPC      H2R             1.6448297018       41.8611160857      -13.7348777809  MEMB      206             0.0000000000
     23725       206  POPC      H2S            -0.1239565196       42.0400796869      -13.7613595791  MEMB      206             0.0000000000
     23726       206  POPC      C3              2.3732203465       37.7897551068      -15.0159312484  MEMB      206             0.0000000000
     23727       206  POPC      HX              2.5575525673       36.8351303436      -15.5535497344  MEMB      206             0.0000000000
     23728       206  POPC      HY              1.6037334836       37.7293734292      -14.2168285845  MEMB      206             0.0000000000
     23729       206  POPC      O31             3.5735428539       38.0736153090      -14.3736295899  MEMB      206             0.0000000000
     23730       206  POPC      C31             3.6192515015       38.7881504224      -13.2382159753  MEMB      206             0.0000000000
     23731       206  POPC      O32             2.6796841379       39.1173725603      -12.5260229975  MEMB      206             0.0000000000
     23732       206  POPC      C32             5.0595303577       39.0326045316      -12.9152467614  MEMB      206             0.0000000000
     23733       206  POPC      H2X             5.7555991827       38.8373781021      -13.7588674254  MEMB      206             0.0000000000
     23734       206  POPC      H2Y             5.2740282535       38.2814107112      -12.1252978166  MEMB      206             0.0000000000
     23735       206  POPC      C23             0.8050331784       43.4066281507      -15.1517002438  MEMB      206             0.0000000000
     23736       206  POPC      H3R            -0.1323944805       43.5555580362      -15.7290822476  MEMB      206             0.0000000000
     23737       206  POPC      H3S             1.5430531392       43.4646765796      -15.9801192021  MEMB      206             0.0000000000
     23738       206  POPC      C24             0.9622053772       44.6029182176      -14.1825463789  MEMB      206             0.0000000000
     23739       206  POPC      H4R             0.0188552504       44.9034716224      -13.6784832197  MEMB      206             0.0000000000
     23740       206  POPC      H4S             1.0612561175       45.5033294370      -14.8257954421  MEMB      206             0.0000000000
     23741       206  POPC      C25             2.1323017122       44.6159681118      -13.1770724230  MEMB      206             0.0000000000
     23742       206  POPC      H5R             2.6989333985       45.5632751785      -13.0511408661  MEMB      206             0.0000000000
     23743       206  POPC      H5S             2.8047020686       43.8387975582      -13.5992148039  MEMB      206             0.0000000000
     23744       206  POPC      C26             1.7079244441       44.1725630839      -11.7822030375  MEMB      206             0.0000000000
     23745       206  POPC      H6R             0.8297583122       43.4936534260      -11.7350129347  MEMB      206             0.0000000000
     23746       206  POPC      H6S             1.2994091421       45.1002750554      -11.3274644111  MEMB      206             0.0000000000
     23747       206  POPC      C27             2.7657634813       43.5581689632      -10.9179805528  MEMB      206             0.0000000000
     23748       206  POPC      H7R             3.6198942809       44.2682709830      -10.8948191017  MEMB      206             0.0000000000
     23749       206  POPC      H7S             3.2228835473       42.6927971983      -11.4438073453  MEMB      206             0.0000000000
     23750       206  POPC      C28             2.2475874357       43.1450486834       -9.5163331437  MEMB      206             0.0000000000
     23751       206  POPC      H8R             1.9424152772       44.0341641168       -8.9241642061  MEMB      206             0.0000000000
     23752       206  POPC      H8S             3.1868057470       42.8535525027       -8.9994008071  MEMB      206             0.0000000000
     23753       206  POPC      C29             1.2607994143       42.0627008588       -9.3475100362  MEMB      206             0.0000000000
     23754       206  POPC      H91             0.1994049630       42.2832833602       -9.5340162431  MEMB      206             0.0000000000
     23755       206  POPC      C210            1.5129524065       40.7691379373       -9.0727902676  MEMB      206             0.0000000000
     23756       206  POPC      H101            0.6930081887       40.0371872456       -9.0287441359  MEMB      206             0.0000000000
     23757       206  POPC      C211            2.8601544123       40.1766591759       -8.8810569123  MEMB      206             0.0000000000
     23758       206  POPC      H11R            3.6533353215       40.7823547271       -9.3692344559  MEMB      206             0.0000000000
     23759       206  POPC      H11S            3.0296948769       39.1343518620       -9.2262705681  MEMB      206             0.0000000000
     23760       206  POPC      C212            3.3026604021       40.1885907858       -7.3762411483  MEMB      206             0.0000000000
     23761       206  POPC      H12R            2.8757458261       41.0544172089       -6.8263231523  MEMB      206             0.0000000000
     23762       206  POPC      H12S            4.4022782195       40.3465475269       -7.3907800120  MEMB      206             0.0000000000
     23763       206  POPC      C213            2.8300598106       38.9448651541       -6.5426612852  MEMB      206             0.0000000000
     23764       206  POPC      H13R            3.3192978481       38.1786830431       -7.1813564385  MEMB      206             0.0000000000
     23765       206  POPC      H13S            1.7245941959       38.8396103079       -6.5771305541  MEMB      206             0.0000000000
     23766       206  POPC      C214            3.4158755870       38.6981106865       -5.1739710974  MEMB      206             0.0000000000
     23767       206  POPC      H14R            4.5192128630       38.7814393021       -5.2740916356  MEMB      206             0.0000000000
     23768       206  POPC      H14S            3.1742600294       37.6637264758       -4.8484069378  MEMB      206             0.0000000000
     23769       206  POPC      C215            2.8514108344       39.5670253087       -4.1937874056  MEMB      206             0.0000000000
     23770       206  POPC      H15R            2.9101537970       40.6073964526       -4.5791413524  MEMB      206             0.0000000000
     23771       206  POPC      H15S            3.4654378948       39.4953596419       -3.2706638948  MEMB      206             0.0000000000
     23772       206  POPC      C216            1.3934648639       39.0590506766       -3.8654187671  MEMB      206             0.0000000000
     23773       206  POPC      H16R            1.3755758802       37.9483822628       -3.8858319546  MEMB      206             0.0000000000
     23774       206  POPC      H16S            0.7557349102       39.3272733483       -4.7347162570  MEMB      206             0.0000000000
     23775       206  POPC      C217            0.8720342112       39.5906067955       -2.5488233422  MEMB      206             0.0000000000
     23776       206  POPC      H17R           -0.2243143931       39.4149952801       -2.5875652639  MEMB      206             0.0000000000
     23777       206  POPC      H17S            1.1309053689       40.6577363150       -2.3798817609  MEMB      206             0.0000000000
     23778       206  POPC      C218            1.3529309987       38.6973545060       -1.3996143125  MEMB      206             0.0000000000
     23779       206  POPC      H18R            1.2839237476       37.6243175032       -1.6791685714  MEMB      206             0.0000000000
     23780       206  POPC      H18S            0.7682674586       38.8296742260       -0.4642108581  MEMB      206             0.0000000000
     23781       206  POPC      H18T            2.3998926030       38.8802802787       -1.0759936610  MEMB      206             0.0000000000
     23782       206  POPC      C33             5.3779177055       40.4714445983      -12.4494599027  MEMB      206             0.0000000000
     23783       206  POPC      H3X             4.9045571795       40.6967210523      -11.4699186899  MEMB      206             0.0000000000
     23784       206  POPC      H3Y             4.9833081763       41.2731955351      -13.1096115330  MEMB      206             0.0000000000
     23785       206  POPC      C34             6.8893016415       40.7231416049      -12.6200980677  MEMB      206             0.0000000000
     23786       206  POPC      H4X             7.3182570452       40.4764749789      -13.6148209369  MEMB      206             0.0000000000
     23787       206  POPC      H4Y             7.4504537404       40.0739965707      -11.9143780548  MEMB      206             0.0000000000
     23788       206  POPC      C35             7.3610985892       42.1360601943      -12.2422762906  MEMB      206             0.0000000000
     23789       206  POPC      H5X             7.0078497480       42.9013007794      -12.9661152533  MEMB      206             0.0000000000
     23790       206  POPC      H5Y             8.4668518395       42.0739575735      -12.1541045327  MEMB      206             0.0000000000
     23791       206  POPC      C36             6.8098309514       42.7084873602      -10.8790048670  MEMB      206             0.0000000000
     23792       206  POPC      H6X             5.7054904763       42.6237591876      -10.9660361274  MEMB      206             0.0000000000
     23793       206  POPC      H6Y             6.9697743256       43.8065120176      -10.8234988641  MEMB      206             0.0000000000
     23794       206  POPC      C37             7.3303749028       42.0748017269       -9.6351218788  MEMB      206             0.0000000000
     23795       206  POPC      H7X             8.3684668984       42.4209830759       -9.4431730893  MEMB      206             0.0000000000
     23796       206  POPC      H7Y             7.3017753772       40.9750122170       -9.7899322516  MEMB      206             0.0000000000
     23797       206  POPC      C38             6.5751016203       42.5296975656       -8.3408711020  MEMB      206             0.0000000000
     23798       206  POPC      H8X             5.4790922228       42.3830517852       -8.4484772475  MEMB      206             0.0000000000
     23799       206  POPC      H8Y             6.7665100024       43.6132127999       -8.1869927730  MEMB      206             0.0000000000
     23800       206  POPC      C39             7.0716103747       42.0099863838       -7.0197660050  MEMB      206             0.0000000000
     23801       206  POPC      H9X             8.1684427855       42.0864870848       -6.8603077084  MEMB      206             0.0000000000
     23802       206  POPC      H9Y             6.8218168629       40.9380611287       -6.8684364993  MEMB      206             0.0000000000
     23803       206  POPC      C310            6.4140187230       42.7095535467       -5.8247124067  MEMB      206             0.0000000000
     23804       206  POPC      H10X            5.3099420355       42.6647066902       -5.9401433008  MEMB      206             0.0000000000
     23805       206  POPC      H10Y            6.7337237463       43.7558432303       -6.0180706278  MEMB      206             0.0000000000
     23806       206  POPC      C311            6.7356626472       42.1283752482       -4.3961460949  MEMB      206             0.0000000000
     23807       206  POPC      H11X            7.8264247374       41.9545538239       -4.2763744158  MEMB      206             0.0000000000
     23808       206  POPC      H11Y            6.1957232816       41.1601144310       -4.3236367649  MEMB      206             0.0000000000
     23809       206  POPC      C312            6.2853769747       43.1233023078       -3.2441452746  MEMB      206             0.0000000000
     23810       206  POPC      H12X            7.0540044805       43.9176986532       -3.1324886163  MEMB      206             0.0000000000
     23811       206  POPC      H12Y            6.4271527788       42.4476458103       -2.3736806753  MEMB      206             0.0000000000
     23812       206  POPC      C313            4.8479588608       43.5852193928       -3.3396494125  MEMB      206             0.0000000000
     23813       206  POPC      H13X            4.2018368730       42.7048771650       -3.5442103892  MEMB      206             0.0000000000
     23814       206  POPC      H13Y            4.7768336150       44.2660717708       -4.2146930309  MEMB      206             0.0000000000
     23815       206  POPC      C314            4.4573373478       44.2542552432       -2.0444902780  MEMB      206             0.0000000000
     23816       206  POPC      H14X            3.3725738467       44.4799140647       -2.1262674931  MEMB      206             0.0000000000
     23817       206  POPC      H14Y            5.0926913519       45.1569893029       -1.9191201110  MEMB      206             0.0000000000
     23818       206  POPC      C315            4.5854887333       43.4761644238       -0.7541764257  MEMB      206             0.0000000000
     23819       206  POPC      H15X            4.0002753095       43.9418610021        0.0673911748  MEMB      206             0.0000000000
     23820       206  POPC      H15Y            5.6478247220       43.5442064733       -0.4361609305  MEMB      206             0.0000000000
     23821       206  POPC      C316            4.1009015267       42.0803923603       -0.6741958175  MEMB      206             0.0000000000
     23822       206  POPC      H16X            4.4275908165       41.5280501914        0.2327280031  MEMB      206             0.0000000000
     23823       206  POPC      H16Y            4.3450233140       41.3586676152       -1.4827992142  MEMB      206             0.0000000000
     23824       206  POPC      H16Z            3.0001373871       42.2061061737       -0.5915197466  MEMB      206             0.0000000000
     23825       207  POPC      N             -39.8750846004       -8.1530839310      -19.7099569426  MEMB      207             0.0000000000
     23826       207  POPC      C12           -38.6344851336       -8.1072700339      -18.8560297201  MEMB      207             0.0000000000
     23827       207  POPC      H12A          -38.3742649285       -7.1028071424      -18.5564634304  MEMB      207             0.0000000000
     23828       207  POPC      H12B          -37.8197145815       -8.4276181640      -19.4884267794  MEMB      207             0.0000000000
     23829       207  POPC      C13           -41.0332197501       -8.3487754841      -18.8455401818  MEMB      207             0.0000000000
     23830       207  POPC      H13A          -41.9402510577       -8.2670781625      -19.4260742003  MEMB      207             0.0000000000
     23831       207  POPC      H13B          -41.0153423247       -9.3565191345      -18.4575541529  MEMB      207             0.0000000000
     23832       207  POPC      H13C          -41.1095321545       -7.6285508796      -18.0443829056  MEMB      207             0.0000000000
     23833       207  POPC      C14           -40.2646095850       -6.8332485438      -20.4601400570  MEMB      207             0.0000000000
     23834       207  POPC      H14A          -40.7691156724       -6.1895727563      -19.7547643080  MEMB      207             0.0000000000
     23835       207  POPC      H14B          -39.3263142363       -6.4237791874      -20.8041409195  MEMB      207             0.0000000000
     23836       207  POPC      H14C          -40.8855025406       -6.9992801416      -21.3280833089  MEMB      207             0.0000000000
     23837       207  POPC      C15           -39.7757889518       -9.2729164607      -20.7129393288  MEMB      207             0.0000000000
     23838       207  POPC      H15A          -40.6664792121       -9.5368154686      -21.2637822424  MEMB      207             0.0000000000
     23839       207  POPC      H15B          -39.3728337008      -10.1734950228      -20.2736383237  MEMB      207             0.0000000000
     23840       207  POPC      H15C          -39.0436663560       -8.9644178658      -21.4445301520  MEMB      207             0.0000000000
     23841       207  POPC      C11           -38.4223560541       -8.9234775353      -17.6205231581  MEMB      207             0.0000000000
     23842       207  POPC      H11A          -39.1024754165       -8.6665028563      -16.7804501690  MEMB      207             0.0000000000
     23843       207  POPC      H11B          -37.3934760605       -8.7322565278      -17.2474796261  MEMB      207             0.0000000000
     23844       207  POPC      P             -37.3738041825      -11.1638729647      -18.6553103598  MEMB      207             0.0000000000
     23845       207  POPC      O13           -36.4331500050      -10.2663027734      -19.3818778263  MEMB      207             0.0000000000
     23846       207  POPC      O14           -38.0515147675      -12.2397502235      -19.4391589688  MEMB      207             0.0000000000
     23847       207  POPC      O12           -38.5426521548      -10.3097045388      -17.9399973008  MEMB      207             0.0000000000
     23848       207  POPC      O11           -36.7457822952      -11.8422947048      -17.3785261846  MEMB      207             0.0000000000
     23849       207  POPC      C1            -35.7195459886      -11.2349835312      -16.5626387726  MEMB      207             0.0000000000
     23850       207  POPC      HA            -35.6751882658      -10.1554571527      -16.8214364325  MEMB      207             0.0000000000
     23851       207  POPC      HB            -34.7396645836      -11.6749254887      -16.8465478465  MEMB      207             0.0000000000
     23852       207  POPC      C2            -35.7851645066      -11.5302723126      -15.1380878385  MEMB      207             0.0000000000
     23853       207  POPC      HS            -35.5313006495      -12.6058105039      -15.0236699340  MEMB      207             0.0000000000
     23854       207  POPC      O21           -37.0546640463      -11.2176697747      -14.6103258962  MEMB      207             0.0000000000
     23855       207  POPC      C21           -37.9759087803      -12.1674131530      -14.6735233431  MEMB      207             0.0000000000
     23856       207  POPC      O22           -37.7143021956      -13.2932427160      -14.9204362120  MEMB      207             0.0000000000
     23857       207  POPC      C22           -39.3295965122      -11.6393071352      -14.3315277675  MEMB      207             0.0000000000
     23858       207  POPC      H2R           -40.1881296783      -12.2854516833      -14.6139091113  MEMB      207             0.0000000000
     23859       207  POPC      H2S           -39.4116988511      -10.6719230395      -14.8716652113  MEMB      207             0.0000000000
     23860       207  POPC      C3            -34.7336202794      -10.7306551022      -14.3316776308  MEMB      207             0.0000000000
     23861       207  POPC      HX            -33.6803262818      -10.9228205867      -14.6282665816  MEMB      207             0.0000000000
     23862       207  POPC      HY            -34.8901748360      -11.0542767902      -13.2804494366  MEMB      207             0.0000000000
     23863       207  POPC      O31           -34.8998541649       -9.3128416893      -14.6149821186  MEMB      207             0.0000000000
     23864       207  POPC      C31           -34.3926568533       -8.5214190732      -13.7267671884  MEMB      207             0.0000000000
     23865       207  POPC      O32           -33.5783152339       -8.8893332250      -12.8581788095  MEMB      207             0.0000000000
     23866       207  POPC      C32           -34.9900830479       -7.1334117672      -13.8333938230  MEMB      207             0.0000000000
     23867       207  POPC      H2X           -36.0246518515       -7.3332967866      -14.1855793286  MEMB      207             0.0000000000
     23868       207  POPC      H2Y           -34.4481612754       -6.5513490044      -14.6091801528  MEMB      207             0.0000000000
     23869       207  POPC      C23           -39.4071878857      -11.1767794392      -12.8405231976  MEMB      207             0.0000000000
     23870       207  POPC      H3R           -40.2736677838      -10.4826034786      -12.7998626029  MEMB      207             0.0000000000
     23871       207  POPC      H3S           -38.5283659308      -10.5226308498      -12.6559082088  MEMB      207             0.0000000000
     23872       207  POPC      C24           -39.5065392978      -12.2438302861      -11.7324749305  MEMB      207             0.0000000000
     23873       207  POPC      H4R           -38.4916993981      -12.6024754617      -11.4571667828  MEMB      207             0.0000000000
     23874       207  POPC      H4S           -40.1568780209      -13.0723328031      -12.0859777922  MEMB      207             0.0000000000
     23875       207  POPC      C25           -40.2076059154      -11.5971817917      -10.4715659980  MEMB      207             0.0000000000
     23876       207  POPC      H5R           -41.2358532256      -11.2526269398      -10.7130413671  MEMB      207             0.0000000000
     23877       207  POPC      H5S           -39.7142005120      -10.6466352903      -10.1760430812  MEMB      207             0.0000000000
     23878       207  POPC      C26           -40.3927186856      -12.5481867628       -9.2758096260  MEMB      207             0.0000000000
     23879       207  POPC      H6R           -41.0448624932      -13.3677588758       -9.6463919358  MEMB      207             0.0000000000
     23880       207  POPC      H6S           -40.7518845391      -11.9425920163       -8.4164053560  MEMB      207             0.0000000000
     23881       207  POPC      C27           -39.1492409988      -13.2252825112       -8.7310590372  MEMB      207             0.0000000000
     23882       207  POPC      H7R           -38.6465338560      -13.7668478417       -9.5607051232  MEMB      207             0.0000000000
     23883       207  POPC      H7S           -39.5173961105      -13.9145993676       -7.9413596055  MEMB      207             0.0000000000
     23884       207  POPC      C28           -38.1985228159      -12.2777161660       -8.0784473902  MEMB      207             0.0000000000
     23885       207  POPC      H8R           -38.6360920386      -12.0271986140       -7.0884497679  MEMB      207             0.0000000000
     23886       207  POPC      H8S           -38.1211714475      -11.3351733384       -8.6615009159  MEMB      207             0.0000000000
     23887       207  POPC      C29           -36.7599753958      -12.8584224848       -7.9434474813  MEMB      207             0.0000000000
     23888       207  POPC      H91           -36.6155410033      -13.5810630025       -7.1267897834  MEMB      207             0.0000000000
     23889       207  POPC      C210          -35.5724257231      -12.3785075412       -8.5641559443  MEMB      207             0.0000000000
     23890       207  POPC      H101          -34.6388904280      -12.9079588722       -8.3229222000  MEMB      207             0.0000000000
     23891       207  POPC      C211          -35.3520580979      -11.2365850871       -9.4902276996  MEMB      207             0.0000000000
     23892       207  POPC      H11R          -36.2683758214      -11.2788272176      -10.1170437737  MEMB      207             0.0000000000
     23893       207  POPC      H11S          -34.3864586914      -11.4142906951      -10.0101882552  MEMB      207             0.0000000000
     23894       207  POPC      C212          -35.0881607990       -9.9103692283       -8.7916820676  MEMB      207             0.0000000000
     23895       207  POPC      H12R          -35.9338602883       -9.7339797198       -8.0931123002  MEMB      207             0.0000000000
     23896       207  POPC      H12S          -34.9396589768       -9.0371446525       -9.4623142441  MEMB      207             0.0000000000
     23897       207  POPC      C213          -33.7807447146       -9.9266304263       -7.9299500519  MEMB      207             0.0000000000
     23898       207  POPC      H13R          -32.9142310418       -9.7209834490       -8.5941671855  MEMB      207             0.0000000000
     23899       207  POPC      H13S          -33.6413678337      -10.8555635674       -7.3366732132  MEMB      207             0.0000000000
     23900       207  POPC      C214          -33.7209368443       -8.8707889518       -6.8148020567  MEMB      207             0.0000000000
     23901       207  POPC      H14R          -33.6068784620       -7.9008631249       -7.3444763531  MEMB      207             0.0000000000
     23902       207  POPC      H14S          -32.7214550556       -9.0631131823       -6.3694163769  MEMB      207             0.0000000000
     23903       207  POPC      C215          -34.7505254816       -8.9823450130       -5.6870723323  MEMB      207             0.0000000000
     23904       207  POPC      H15R          -35.7544880491       -8.6453992263       -6.0229997087  MEMB      207             0.0000000000
     23905       207  POPC      H15S          -34.4239578918       -8.2182852053       -4.9495853109  MEMB      207             0.0000000000
     23906       207  POPC      C216          -34.8311632542      -10.3884387422       -5.0433298790  MEMB      207             0.0000000000
     23907       207  POPC      H16R          -33.8289972039      -10.5596852910       -4.5953810672  MEMB      207             0.0000000000
     23908       207  POPC      H16S          -35.0702335489      -11.1644566630       -5.8015934158  MEMB      207             0.0000000000
     23909       207  POPC      C217          -35.9330706843      -10.3328414653       -3.9052360457  MEMB      207             0.0000000000
     23910       207  POPC      H17R          -36.9124757425      -10.2732211847       -4.4263231458  MEMB      207             0.0000000000
     23911       207  POPC      H17S          -35.8699338793       -9.4913940113       -3.1825320718  MEMB      207             0.0000000000
     23912       207  POPC      C218          -36.0429028580      -11.6810353699       -3.1513854470  MEMB      207             0.0000000000
     23913       207  POPC      H18R          -35.0654633442      -11.8798212331       -2.6620828784  MEMB      207             0.0000000000
     23914       207  POPC      H18S          -36.2439906217      -12.5549826520       -3.8072058002  MEMB      207             0.0000000000
     23915       207  POPC      H18T          -36.9290357448      -11.5782038397       -2.4891801371  MEMB      207             0.0000000000
     23916       207  POPC      C33           -35.1678458348       -6.6400473433      -12.3858487735  MEMB      207             0.0000000000
     23917       207  POPC      H3X           -34.1450956048       -6.4621079855      -11.9900699658  MEMB      207             0.0000000000
     23918       207  POPC      H3Y           -35.6704401676       -7.3808317103      -11.7278530550  MEMB      207             0.0000000000
     23919       207  POPC      C34           -35.9001038472       -5.3092550829      -12.1782440214  MEMB      207             0.0000000000
     23920       207  POPC      H4X           -35.3914000696       -4.4254042445      -12.6190938424  MEMB      207             0.0000000000
     23921       207  POPC      H4Y           -35.6016679979       -5.1493836618      -11.1200861681  MEMB      207             0.0000000000
     23922       207  POPC      C35           -37.3938099951       -5.1691220930      -12.3620416371  MEMB      207             0.0000000000
     23923       207  POPC      H5X           -37.7265955455       -5.1151005906      -13.4206522972  MEMB      207             0.0000000000
     23924       207  POPC      H5Y           -37.6660069147       -4.2078259146      -11.8760995591  MEMB      207             0.0000000000
     23925       207  POPC      C36           -38.1528193811       -6.2669689239      -11.6685809863  MEMB      207             0.0000000000
     23926       207  POPC      H6X           -37.7626870287       -7.2370765247      -12.0440930939  MEMB      207             0.0000000000
     23927       207  POPC      H6Y           -39.2148818949       -6.0503170529      -11.9123149232  MEMB      207             0.0000000000
     23928       207  POPC      C37           -38.1017936067       -6.2632513767      -10.0777696355  MEMB      207             0.0000000000
     23929       207  POPC      H7X           -38.4837711836       -5.3036483309       -9.6684100293  MEMB      207             0.0000000000
     23930       207  POPC      H7Y           -37.0585896727       -6.1589334183       -9.7101230507  MEMB      207             0.0000000000
     23931       207  POPC      C38           -38.7391335021       -7.5124763266       -9.5358727111  MEMB      207             0.0000000000
     23932       207  POPC      H8X           -38.0770467885       -8.3168354488       -9.9218369400  MEMB      207             0.0000000000
     23933       207  POPC      H8Y           -39.8094387006       -7.6997828431       -9.7675705075  MEMB      207             0.0000000000
     23934       207  POPC      C39           -38.5349022186       -7.8307259119       -8.0232846979  MEMB      207             0.0000000000
     23935       207  POPC      H9X           -37.4336802319       -7.9372718296       -7.9218986013  MEMB      207             0.0000000000
     23936       207  POPC      H9Y           -38.9672288368       -8.8040114896       -7.7068515111  MEMB      207             0.0000000000
     23937       207  POPC      C310          -39.0604240251       -6.7296337026       -7.1184748184  MEMB      207             0.0000000000
     23938       207  POPC      H10X          -40.1550174425       -6.7987085265       -7.2957180346  MEMB      207             0.0000000000
     23939       207  POPC      H10Y          -38.6465039559       -5.7733469528       -7.5038401223  MEMB      207             0.0000000000
     23940       207  POPC      C311          -38.9724431010       -6.8290285468       -5.6456568859  MEMB      207             0.0000000000
     23941       207  POPC      H11X          -39.5175217147       -5.9433932834       -5.2546829433  MEMB      207             0.0000000000
     23942       207  POPC      H11Y          -37.9346471979       -6.7112107188       -5.2669491057  MEMB      207             0.0000000000
     23943       207  POPC      C312          -39.6277476380       -8.1500049423       -5.0794329247  MEMB      207             0.0000000000
     23944       207  POPC      H12X          -38.9663678714       -8.9026864500       -5.5594002565  MEMB      207             0.0000000000
     23945       207  POPC      H12Y          -40.6904333252       -8.1569354386       -5.4034278162  MEMB      207             0.0000000000
     23946       207  POPC      C313          -39.4949089891       -8.2867280995       -3.5398653205  MEMB      207             0.0000000000
     23947       207  POPC      H13X          -40.0414559361       -7.3875269278       -3.1834313408  MEMB      207             0.0000000000
     23948       207  POPC      H13Y          -38.4276630021       -8.3775660855       -3.2448134940  MEMB      207             0.0000000000
     23949       207  POPC      C314          -40.1979768692       -9.6307609949       -3.0176125713  MEMB      207             0.0000000000
     23950       207  POPC      H14X          -39.7410014088      -10.5766306047       -3.3793097756  MEMB      207             0.0000000000
     23951       207  POPC      H14Y          -41.2195643668       -9.6975438317       -3.4491444734  MEMB      207             0.0000000000
     23952       207  POPC      C315          -40.5564127094       -9.7155521236       -1.5578384796  MEMB      207             0.0000000000
     23953       207  POPC      H15X          -39.6494963044       -9.9276258135       -0.9521590686  MEMB      207             0.0000000000
     23954       207  POPC      H15Y          -41.1615247675      -10.6362298036       -1.4146137672  MEMB      207             0.0000000000
     23955       207  POPC      C316          -41.3506885190       -8.6085336495       -0.9104386289  MEMB      207             0.0000000000
     23956       207  POPC      H16X          -41.9664201161       -8.2742265158       -1.7726646107  MEMB      207             0.0000000000
     23957       207  POPC      H16Y          -40.6931792791       -7.8044372113       -0.5161910967  MEMB      207             0.0000000000
     23958       207  POPC      H16Z          -41.9293664183       -8.9365844188       -0.0205880980  MEMB      207             0.0000000000
     23959       208  POPC      N              17.4416334683       32.8631749028      -18.9950886632  MEMB      208             0.0000000000
     23960       208  POPC      C12            18.8837594436       32.9186561888      -19.0513620622  MEMB      208             0.0000000000
     23961       208  POPC      H12A           19.1042498766       33.0356032073      -20.1021271723  MEMB      208             0.0000000000
     23962       208  POPC      H12B           19.2243828836       31.9093144449      -18.8735840416  MEMB      208             0.0000000000
     23963       208  POPC      C13            16.8343351745       34.0279325455      -19.7258732840  MEMB      208             0.0000000000
     23964       208  POPC      H13A           15.7715639696       33.8463670289      -19.6630158002  MEMB      208             0.0000000000
     23965       208  POPC      H13B           17.2629156533       34.9571328760      -19.3804669833  MEMB      208             0.0000000000
     23966       208  POPC      H13C           17.1566510961       33.9515071225      -20.7538188003  MEMB      208             0.0000000000
     23967       208  POPC      C14            17.0446742091       31.5935365532      -19.7032442628  MEMB      208             0.0000000000
     23968       208  POPC      H14A           17.5034568265       30.7755686570      -19.1676634109  MEMB      208             0.0000000000
     23969       208  POPC      H14B           15.9717421154       31.4728077252      -19.7285668287  MEMB      208             0.0000000000
     23970       208  POPC      H14C           17.2766546720       31.6633275283      -20.7557242069  MEMB      208             0.0000000000
     23971       208  POPC      C15            16.9785530251       32.8515503582      -17.5688696189  MEMB      208             0.0000000000
     23972       208  POPC      H15A           17.0727679786       33.8546062066      -17.1797652391  MEMB      208             0.0000000000
     23973       208  POPC      H15B           17.4875350758       32.1611527806      -16.9126009475  MEMB      208             0.0000000000
     23974       208  POPC      H15C           15.9462945387       32.5348393823      -17.5920356328  MEMB      208             0.0000000000
     23975       208  POPC      C11            19.6669930294       33.8791422230      -18.1320564074  MEMB      208             0.0000000000
     23976       208  POPC      H11A           20.7596865514       33.8337627433      -18.3277155952  MEMB      208             0.0000000000
     23977       208  POPC      H11B           19.5506566880       33.5041542854      -17.0927437469  MEMB      208             0.0000000000
     23978       208  POPC      P              19.6431308498       36.2901138663      -19.2394139470  MEMB      208             0.0000000000
     23979       208  POPC      O13            19.0437339851       35.8018140177      -20.5256693130  MEMB      208             0.0000000000
     23980       208  POPC      O14            21.1142441841       36.4417395298      -19.1821639211  MEMB      208             0.0000000000
     23981       208  POPC      O12            19.1869780162       35.2442967597      -18.0973022355  MEMB      208             0.0000000000
     23982       208  POPC      O11            18.8761952032       37.6125367958      -18.7789562848  MEMB      208             0.0000000000
     23983       208  POPC      C1             17.5433797471       37.5991532721      -18.2540681152  MEMB      208             0.0000000000
     23984       208  POPC      HA             17.0827186965       36.6204730490      -18.5076375731  MEMB      208             0.0000000000
     23985       208  POPC      HB             16.9252475832       38.3599099593      -18.7770239627  MEMB      208             0.0000000000
     23986       208  POPC      C2             17.6588820600       38.0206010908      -16.7422032175  MEMB      208             0.0000000000
     23987       208  POPC      HS             17.8981270964       39.0980112881      -16.6146501613  MEMB      208             0.0000000000
     23988       208  POPC      O21            18.7413064155       37.2569023339      -16.1622769210  MEMB      208             0.0000000000
     23989       208  POPC      C21            19.6735055340       37.8600264582      -15.4057296996  MEMB      208             0.0000000000
     23990       208  POPC      O22            19.6984074551       39.0358170349      -15.0249675408  MEMB      208             0.0000000000
     23991       208  POPC      C22            20.7694893014       36.8515188397      -15.0743426043  MEMB      208             0.0000000000
     23992       208  POPC      H2R            21.2174046910       36.5830475383      -16.0549629117  MEMB      208             0.0000000000
     23993       208  POPC      H2S            20.2999954635       35.9987768219      -14.5388732275  MEMB      208             0.0000000000
     23994       208  POPC      C3             16.3699699445       37.7864217287      -16.0229908666  MEMB      208             0.0000000000
     23995       208  POPC      HX             15.9803458117       36.8197706941      -16.4078282138  MEMB      208             0.0000000000
     23996       208  POPC      HY             15.6180688535       38.5738533195      -16.2441625640  MEMB      208             0.0000000000
     23997       208  POPC      O31            16.5424294901       37.7883588637      -14.5590234152  MEMB      208             0.0000000000
     23998       208  POPC      C31            15.9760349301       36.7767411881      -13.9259744797  MEMB      208             0.0000000000
     23999       208  POPC      O32            15.4678476336       35.8438595221      -14.4276484144  MEMB      208             0.0000000000
     24000       208  POPC      C32            16.2043624707       36.9162249844      -12.5065800244  MEMB      208             0.0000000000
     24001       208  POPC      H2X            15.8426452442       36.0633886701      -11.8932680306  MEMB      208             0.0000000000
     24002       208  POPC      H2Y            15.8521276780       37.8881181783      -12.0995480604  MEMB      208             0.0000000000
     24003       208  POPC      C23            21.6779792714       37.5270185716      -14.1019225066  MEMB      208             0.0000000000
     24004       208  POPC      H3R            21.0261379568       37.9357136364      -13.3004284015  MEMB      208             0.0000000000
     24005       208  POPC      H3S            22.1426179426       38.4205370969      -14.5710237996  MEMB      208             0.0000000000
     24006       208  POPC      C24            22.7015230222       36.5815878374      -13.4369632172  MEMB      208             0.0000000000
     24007       208  POPC      H4R            23.2357759325       35.9628219562      -14.1893086174  MEMB      208             0.0000000000
     24008       208  POPC      H4S            22.2643591528       35.6972875589      -12.9258645909  MEMB      208             0.0000000000
     24009       208  POPC      C25            23.6371897983       37.3683548358      -12.5562796203  MEMB      208             0.0000000000
     24010       208  POPC      H5R            24.4141489198       37.9325408667      -13.1151621221  MEMB      208             0.0000000000
     24011       208  POPC      H5S            24.1417885536       36.5789924982      -11.9591127657  MEMB      208             0.0000000000
     24012       208  POPC      C26            22.9300083982       38.3696058267      -11.6286311883  MEMB      208             0.0000000000
     24013       208  POPC      H6R            22.0216292550       37.8268415849      -11.2901410029  MEMB      208             0.0000000000
     24014       208  POPC      H6S            22.4338260897       39.2134487478      -12.1540384511  MEMB      208             0.0000000000
     24015       208  POPC      C27            23.7528017873       38.9164879815      -10.4529381883  MEMB      208             0.0000000000
     24016       208  POPC      H7R            23.4660612195       39.9203585939      -10.0730104442  MEMB      208             0.0000000000
     24017       208  POPC      H7S            24.8337402681       38.9205970784      -10.7096018428  MEMB      208             0.0000000000
     24018       208  POPC      C28            23.6431530722       38.0648215617       -9.2122913787  MEMB      208             0.0000000000
     24019       208  POPC      H8R            24.3840982891       38.5390689797       -8.5337554206  MEMB      208             0.0000000000
     24020       208  POPC      H8S            24.0682724094       37.0598026582       -9.4209328034  MEMB      208             0.0000000000
     24021       208  POPC      C29            22.2107333994       38.0820989107       -8.6413393126  MEMB      208             0.0000000000
     24022       208  POPC      H91            21.7996926168       39.1008487483       -8.5848212981  MEMB      208             0.0000000000
     24023       208  POPC      C210           21.4332956648       37.1047283389       -8.3666069066  MEMB      208             0.0000000000
     24024       208  POPC      H101           20.3789577973       37.3210807853       -8.1395313432  MEMB      208             0.0000000000
     24025       208  POPC      C211           21.6778191699       35.6058340790       -8.5978847407  MEMB      208             0.0000000000
     24026       208  POPC      H11R           22.5985047472       35.3779249944       -9.1764313337  MEMB      208             0.0000000000
     24027       208  POPC      H11S           20.8812099448       35.2238824625       -9.2715668724  MEMB      208             0.0000000000
     24028       208  POPC      C212           21.8454105072       34.9100007678       -7.2372865961  MEMB      208             0.0000000000
     24029       208  POPC      H12R           22.5563195528       35.4775637091       -6.5994755528  MEMB      208             0.0000000000
     24030       208  POPC      H12S           22.4008636289       33.9668498022       -7.4277044179  MEMB      208             0.0000000000
     24031       208  POPC      C213           20.6005822433       34.8047519005       -6.3340941455  MEMB      208             0.0000000000
     24032       208  POPC      H13R           19.9151119799       34.1374708557       -6.8990619249  MEMB      208             0.0000000000
     24033       208  POPC      H13S           20.1187630363       35.7665970594       -6.0565601701  MEMB      208             0.0000000000
     24034       208  POPC      C214           20.8918138052       34.1309605565       -4.9816768177  MEMB      208             0.0000000000
     24035       208  POPC      H14R           21.4285117557       33.1825614202       -5.1980462557  MEMB      208             0.0000000000
     24036       208  POPC      H14S           19.8861726652       33.8420321512       -4.6081434554  MEMB      208             0.0000000000
     24037       208  POPC      C215           21.7902205043       34.9386296571       -3.9313044713  MEMB      208             0.0000000000
     24038       208  POPC      H15R           22.4116073416       35.7215416246       -4.4163280120  MEMB      208             0.0000000000
     24039       208  POPC      H15S           22.4638663790       34.1542055471       -3.5248551787  MEMB      208             0.0000000000
     24040       208  POPC      C216           20.8434755024       35.6385624209       -2.9468456469  MEMB      208             0.0000000000
     24041       208  POPC      H16R           20.0539197146       36.2032406880       -3.4872724679  MEMB      208             0.0000000000
     24042       208  POPC      H16S           21.4369152312       36.3717787036       -2.3598672779  MEMB      208             0.0000000000
     24043       208  POPC      C217           20.1922131921       34.7006549512       -1.9216138828  MEMB      208             0.0000000000
     24044       208  POPC      H17R           20.9332161672       33.9421473010       -1.5900993168  MEMB      208             0.0000000000
     24045       208  POPC      H17S           19.3732661772       34.0422643187       -2.2824018229  MEMB      208             0.0000000000
     24046       208  POPC      C218           19.4342181070       35.4676938227       -0.8433145462  MEMB      208             0.0000000000
     24047       208  POPC      H18R           18.6517628041       34.8876224230       -0.3088970314  MEMB      208             0.0000000000
     24048       208  POPC      H18S           18.9370411117       36.3536073135       -1.2930847356  MEMB      208             0.0000000000
     24049       208  POPC      H18T           20.1377757874       35.7975463288       -0.0492574562  MEMB      208             0.0000000000
     24050       208  POPC      C33            17.7839776495       37.0724236654      -12.2398866205  MEMB      208             0.0000000000
     24051       208  POPC      H3X            18.1838634231       38.0533204150      -12.5749299854  MEMB      208             0.0000000000
     24052       208  POPC      H3Y            18.3396216447       36.2365017619      -12.7161379327  MEMB      208             0.0000000000
     24053       208  POPC      C34            18.1819069459       36.9705483270      -10.7469311036  MEMB      208             0.0000000000
     24054       208  POPC      H4X            19.2724934479       37.1824309315      -10.7538447449  MEMB      208             0.0000000000
     24055       208  POPC      H4Y            18.0329640726       35.9052311584      -10.4690167872  MEMB      208             0.0000000000
     24056       208  POPC      C35            17.4972800573       37.8378773712       -9.7001769346  MEMB      208             0.0000000000
     24057       208  POPC      H5X            16.3904453520       37.8324115346       -9.6042169141  MEMB      208             0.0000000000
     24058       208  POPC      H5Y            18.0274164447       38.8139883244       -9.6781748021  MEMB      208             0.0000000000
     24059       208  POPC      C36            17.7593502462       37.2916770205       -8.2051611008  MEMB      208             0.0000000000
     24060       208  POPC      H6X            18.0156190603       38.1691636071       -7.5737620370  MEMB      208             0.0000000000
     24061       208  POPC      H6Y            18.5650824722       36.5269118260       -8.2210036836  MEMB      208             0.0000000000
     24062       208  POPC      C37            16.5124902498       36.5900038384       -7.5719760189  MEMB      208             0.0000000000
     24063       208  POPC      H7X            16.4970393736       35.6516690198       -8.1666268109  MEMB      208             0.0000000000
     24064       208  POPC      H7Y            15.5863576182       37.1369754725       -7.8502227306  MEMB      208             0.0000000000
     24065       208  POPC      C38            16.5191024452       36.3667813824       -5.9877395989  MEMB      208             0.0000000000
     24066       208  POPC      H8X            16.1347229149       37.2326633144       -5.4073760518  MEMB      208             0.0000000000
     24067       208  POPC      H8Y            17.6040763359       36.2415413384       -5.7841044736  MEMB      208             0.0000000000
     24068       208  POPC      C39            15.8866804956       35.0142059048       -5.5475096853  MEMB      208             0.0000000000
     24069       208  POPC      H9X            16.0341546298       34.3258218742       -6.4069865099  MEMB      208             0.0000000000
     24070       208  POPC      H9Y            14.7981437177       35.1751713812       -5.3942174942  MEMB      208             0.0000000000
     24071       208  POPC      C310           16.4473979696       34.2679854859       -4.3543624650  MEMB      208             0.0000000000
     24072       208  POPC      H10X           17.3979214997       33.7506238954       -4.6056857951  MEMB      208             0.0000000000
     24073       208  POPC      H10Y           15.6614039242       33.5122671218       -4.1412338719  MEMB      208             0.0000000000
     24074       208  POPC      C311           16.5927965522       34.9090937158       -2.9190553001  MEMB      208             0.0000000000
     24075       208  POPC      H11X           17.3338519498       35.7365483808       -2.9408811950  MEMB      208             0.0000000000
     24076       208  POPC      H11Y           16.9757042677       34.1232004824       -2.2334353574  MEMB      208             0.0000000000
     24077       208  POPC      C312           15.2669732618       35.5952423731       -2.4069026381  MEMB      208             0.0000000000
     24078       208  POPC      H12X           14.4249738410       34.8716264576       -2.3652124166  MEMB      208             0.0000000000
     24079       208  POPC      H12Y           15.0111762619       36.3481837895       -3.1827694584  MEMB      208             0.0000000000
     24080       208  POPC      C313           15.4430764799       36.3286231862       -1.0168712899  MEMB      208             0.0000000000
     24081       208  POPC      H13X           14.5687599065       36.9469971050       -0.7210581275  MEMB      208             0.0000000000
     24082       208  POPC      H13Y           16.2813972499       37.0034688554       -1.2927744700  MEMB      208             0.0000000000
     24083       208  POPC      C314           15.7232475858       35.4311038423        0.1873603898  MEMB      208             0.0000000000
     24084       208  POPC      H14X           16.3827874353       34.5722928300       -0.0611808461  MEMB      208             0.0000000000
     24085       208  POPC      H14Y           14.7481069651       34.9185916145        0.3314191367  MEMB      208             0.0000000000
     24086       208  POPC      C315           15.9341046489       36.3341604789        1.4402270733  MEMB      208             0.0000000000
     24087       208  POPC      H15X           16.0197146746       35.6155463538        2.2831889721  MEMB      208             0.0000000000
     24088       208  POPC      H15Y           15.0856816081       37.0130562322        1.6717439203  MEMB      208             0.0000000000
     24089       208  POPC      C316           17.2501755935       37.1710628906        1.4211299669  MEMB      208             0.0000000000
     24090       208  POPC      H16X           18.1165554673       36.5368226376        1.1357429997  MEMB      208             0.0000000000
     24091       208  POPC      H16Y           17.4471982361       37.5717793201        2.4384443190  MEMB      208             0.0000000000
     24092       208  POPC      H16Z           17.2051119436       38.0161733872        0.7013526351  MEMB      208             0.0000000000
     24093       209  POPC      N              11.4321506689      -39.5777635459      -20.5958584331  MEMB      209             0.0000000000
     24094       209  POPC      C12            11.6178520986      -39.8490546901      -19.0671274334  MEMB      209             0.0000000000
     24095       209  POPC      H12A           12.6770550298      -39.8181654283      -18.8584766079  MEMB      209             0.0000000000
     24096       209  POPC      H12B           11.3382810019      -40.8636993739      -18.8247718569  MEMB      209             0.0000000000
     24097       209  POPC      C13            12.2534744065      -40.6012121775      -21.3245835082  MEMB      209             0.0000000000
     24098       209  POPC      H13A           12.1379836577      -41.5577227029      -20.8365780029  MEMB      209             0.0000000000
     24099       209  POPC      H13B           12.0308359419      -40.6210271474      -22.3812005223  MEMB      209             0.0000000000
     24100       209  POPC      H13C           13.3024973763      -40.3544365706      -21.2535023706  MEMB      209             0.0000000000
     24101       209  POPC      C14             9.9960875605      -39.6914404492      -21.0735745404  MEMB      209             0.0000000000
     24102       209  POPC      H14A            9.9913179771      -39.6386794821      -22.1522743995  MEMB      209             0.0000000000
     24103       209  POPC      H14B            9.5598384117      -40.6321205535      -20.7715683202  MEMB      209             0.0000000000
     24104       209  POPC      H14C            9.3502399793      -38.8983511230      -20.7267455302  MEMB      209             0.0000000000
     24105       209  POPC      C15            11.8328864203      -38.2060566414      -21.0896159147  MEMB      209             0.0000000000
     24106       209  POPC      H15A           11.2987310035      -37.4470155466      -20.5374071859  MEMB      209             0.0000000000
     24107       209  POPC      H15B           11.6907731206      -38.1209082761      -22.1568334906  MEMB      209             0.0000000000
     24108       209  POPC      H15C           12.8782264688      -38.0169613171      -20.8949184142  MEMB      209             0.0000000000
     24109       209  POPC      C11            10.7373030873      -38.9982926419      -18.0862693882  MEMB      209             0.0000000000
     24110       209  POPC      H11A           10.8073861674      -39.3830458361      -17.0463778398  MEMB      209             0.0000000000
     24111       209  POPC      H11B            9.7007858307      -39.1565455807      -18.4535687174  MEMB      209             0.0000000000
     24112       209  POPC      P              12.5888087209      -37.2924332480      -17.5612828248  MEMB      209             0.0000000000
     24113       209  POPC      O13            12.4824603711      -36.2577688810      -16.5060763295  MEMB      209             0.0000000000
     24114       209  POPC      O14            13.5322301251      -37.0729363945      -18.6590584472  MEMB      209             0.0000000000
     24115       209  POPC      O12            11.1678325244      -37.6234081155      -18.1326503516  MEMB      209             0.0000000000
     24116       209  POPC      O11            13.0558364220      -38.6269049113      -16.9039028254  MEMB      209             0.0000000000
     24117       209  POPC      C1             14.3131767452      -38.7372454316      -16.2052679328  MEMB      209             0.0000000000
     24118       209  POPC      HA             15.0425916000      -37.9529922535      -16.5006012671  MEMB      209             0.0000000000
     24119       209  POPC      HB             14.7908263259      -39.6713359861      -16.5708448497  MEMB      209             0.0000000000
     24120       209  POPC      C2             14.0103810054      -38.8182442707      -14.7061641673  MEMB      209             0.0000000000
     24121       209  POPC      HS             14.9641013771      -38.9736802311      -14.1579143191  MEMB      209             0.0000000000
     24122       209  POPC      O21            13.2003218683      -39.9685696574      -14.5136705288  MEMB      209             0.0000000000
     24123       209  POPC      C21            13.7475657307      -41.1436898325      -14.3701832107  MEMB      209             0.0000000000
     24124       209  POPC      O22            14.9150428926      -41.4213554019      -14.3344646557  MEMB      209             0.0000000000
     24125       209  POPC      C22            12.6268365974      -42.1635245689      -14.0778309680  MEMB      209             0.0000000000
     24126       209  POPC      H2R            12.6350006261      -42.8953389532      -14.9137150470  MEMB      209             0.0000000000
     24127       209  POPC      H2S            11.6189344396      -41.6963167313      -14.0647532270  MEMB      209             0.0000000000
     24128       209  POPC      C3             13.3159460070      -37.6708714816      -14.0095544077  MEMB      209             0.0000000000
     24129       209  POPC      HX             12.3040396082      -37.5060994055      -14.4375925377  MEMB      209             0.0000000000
     24130       209  POPC      HY             14.0640810031      -36.8495223536      -14.0085541073  MEMB      209             0.0000000000
     24131       209  POPC      O31            13.2341442864      -38.0365342946      -12.6880749872  MEMB      209             0.0000000000
     24132       209  POPC      C31            12.1366024199      -37.7648890445      -11.9996331896  MEMB      209             0.0000000000
     24133       209  POPC      O32            11.1696000284      -37.2439482926      -12.4110100923  MEMB      209             0.0000000000
     24134       209  POPC      C32            12.2419038117      -38.0918664130      -10.5455729937  MEMB      209             0.0000000000
     24135       209  POPC      H2X            13.2525156399      -37.7739740308      -10.2110141873  MEMB      209             0.0000000000
     24136       209  POPC      H2Y            12.2029870797      -39.1936489744      -10.4081619360  MEMB      209             0.0000000000
     24137       209  POPC      C23            12.8150051317      -42.9055991752      -12.7829895511  MEMB      209             0.0000000000
     24138       209  POPC      H3R            13.7230602193      -43.5457162615      -12.7803050251  MEMB      209             0.0000000000
     24139       209  POPC      H3S            12.1224087797      -43.7713055837      -12.7109894645  MEMB      209             0.0000000000
     24140       209  POPC      C24            12.6787720070      -42.0222218103      -11.5922541057  MEMB      209             0.0000000000
     24141       209  POPC      H4R            11.6431522851      -41.6344795478      -11.4851616885  MEMB      209             0.0000000000
     24142       209  POPC      H4S            13.3305937554      -41.1484099664      -11.8065019864  MEMB      209             0.0000000000
     24143       209  POPC      C25            13.0650586487      -42.7046371782      -10.2927354533  MEMB      209             0.0000000000
     24144       209  POPC      H5R            12.2907750190      -43.5013259933      -10.3023678508  MEMB      209             0.0000000000
     24145       209  POPC      H5S            12.6623029672      -42.1700465917       -9.4059872904  MEMB      209             0.0000000000
     24146       209  POPC      C26            14.5309832121      -43.0992413805      -10.2643233875  MEMB      209             0.0000000000
     24147       209  POPC      H6R            14.8175376910      -43.6245556683      -11.2004072258  MEMB      209             0.0000000000
     24148       209  POPC      H6S            14.6447150487      -43.7517252559       -9.3723309907  MEMB      209             0.0000000000
     24149       209  POPC      C27            15.5432286845      -41.9401250445      -10.1260593797  MEMB      209             0.0000000000
     24150       209  POPC      H7R            15.6222489002      -41.4142572347      -11.1015289344  MEMB      209             0.0000000000
     24151       209  POPC      H7S            16.5784186907      -42.2955999293       -9.9354285613  MEMB      209             0.0000000000
     24152       209  POPC      C28            15.2842758869      -40.9544028355       -8.9600945028  MEMB      209             0.0000000000
     24153       209  POPC      H8R            14.3024864918      -40.4349534470       -8.9842406384  MEMB      209             0.0000000000
     24154       209  POPC      H8S            15.9874474568      -40.0947890057       -8.9906654166  MEMB      209             0.0000000000
     24155       209  POPC      C29            15.5146558811      -41.6674557180       -7.5984804133  MEMB      209             0.0000000000
     24156       209  POPC      H91            16.4133570984      -42.2826851885       -7.4441166097  MEMB      209             0.0000000000
     24157       209  POPC      C210           14.8355580807      -41.5471003385       -6.4448857693  MEMB      209             0.0000000000
     24158       209  POPC      H101           15.1265061364      -42.1730281957       -5.5884015705  MEMB      209             0.0000000000
     24159       209  POPC      C211           13.6115508704      -40.7076306248       -6.1685493248  MEMB      209             0.0000000000
     24160       209  POPC      H11R           12.7319807082      -41.3757932347       -6.0492334817  MEMB      209             0.0000000000
     24161       209  POPC      H11S           13.4679550472      -39.9950079156       -7.0087093328  MEMB      209             0.0000000000
     24162       209  POPC      C212           13.6885186640      -39.8597941477       -4.9326229900  MEMB      209             0.0000000000
     24163       209  POPC      H12R           14.1184533803      -40.5372248946       -4.1641410000  MEMB      209             0.0000000000
     24164       209  POPC      H12S           12.6559284946      -39.7685010835       -4.5329434788  MEMB      209             0.0000000000
     24165       209  POPC      C213           14.5773011310      -38.6469012041       -5.2215364037  MEMB      209             0.0000000000
     24166       209  POPC      H13R           14.3607212645      -38.1098970043       -6.1697135856  MEMB      209             0.0000000000
     24167       209  POPC      H13S           15.6215594171      -39.0252864287       -5.2474217661  MEMB      209             0.0000000000
     24168       209  POPC      C214           14.6193195984      -37.6860725706       -4.1024699401  MEMB      209             0.0000000000
     24169       209  POPC      H14R           15.4031098984      -36.9175012194       -3.9313196561  MEMB      209             0.0000000000
     24170       209  POPC      H14S           14.7018444368      -38.2905923389       -3.1739950875  MEMB      209             0.0000000000
     24171       209  POPC      C215           13.1882733248      -36.9971985859       -3.9504134669  MEMB      209             0.0000000000
     24172       209  POPC      H15R           12.3984358535      -37.7640879923       -3.8008862075  MEMB      209             0.0000000000
     24173       209  POPC      H15S           13.0480484520      -36.6018984143       -4.9791966896  MEMB      209             0.0000000000
     24174       209  POPC      C216           13.0645555076      -35.8873723007       -2.9044228171  MEMB      209             0.0000000000
     24175       209  POPC      H16R           13.4619352536      -34.9421657432       -3.3322020506  MEMB      209             0.0000000000
     24176       209  POPC      H16S           13.5984923618      -36.1739751133       -1.9732459692  MEMB      209             0.0000000000
     24177       209  POPC      C217           11.5817079101      -35.6765577039       -2.6145204290  MEMB      209             0.0000000000
     24178       209  POPC      H17R           11.2470820523      -36.6584771839       -2.2168008447  MEMB      209             0.0000000000
     24179       209  POPC      H17S           10.9385907896      -35.4665275321       -3.4957750813  MEMB      209             0.0000000000
     24180       209  POPC      C218           11.2858456945      -34.6561874314       -1.4699487356  MEMB      209             0.0000000000
     24181       209  POPC      H18R           11.9593717350      -33.8056781676       -1.7093580562  MEMB      209             0.0000000000
     24182       209  POPC      H18S           11.5143117101      -35.1158270154       -0.4846285941  MEMB      209             0.0000000000
     24183       209  POPC      H18T           10.2503873454      -34.2610125018       -1.5473033987  MEMB      209             0.0000000000
     24184       209  POPC      C33            11.2358320809      -37.3346409287       -9.6672275620  MEMB      209             0.0000000000
     24185       209  POPC      H3X            10.2125683064      -37.4755281451      -10.0763766767  MEMB      209             0.0000000000
     24186       209  POPC      H3Y            11.3764332483      -36.2580326456       -9.9027424174  MEMB      209             0.0000000000
     24187       209  POPC      C34            11.3616404091      -37.3383317776       -8.1759576388  MEMB      209             0.0000000000
     24188       209  POPC      H4X            10.9121339706      -36.5433435009       -7.5432979051  MEMB      209             0.0000000000
     24189       209  POPC      H4Y            12.4556352075      -37.3145956284       -7.9837779192  MEMB      209             0.0000000000
     24190       209  POPC      C35            10.7151448126      -38.6024500350       -7.3986615596  MEMB      209             0.0000000000
     24191       209  POPC      H5X            11.1105184586      -38.5744731601       -6.3607702343  MEMB      209             0.0000000000
     24192       209  POPC      H5Y            11.0472183697      -39.4613387060       -8.0202389692  MEMB      209             0.0000000000
     24193       209  POPC      C36             9.1951887356      -38.4314677735       -7.2684329410  MEMB      209             0.0000000000
     24194       209  POPC      H6X             8.7187669310      -38.4849553626       -8.2706711141  MEMB      209             0.0000000000
     24195       209  POPC      H6Y             8.9366884809      -37.4512889755       -6.8137372856  MEMB      209             0.0000000000
     24196       209  POPC      C37             8.5985826687      -39.3915030462       -6.2439463429  MEMB      209             0.0000000000
     24197       209  POPC      H7X             8.7071610531      -40.4685356184       -6.4940113500  MEMB      209             0.0000000000
     24198       209  POPC      H7Y             7.4967280191      -39.2495113415       -6.2352432814  MEMB      209             0.0000000000
     24199       209  POPC      C38             9.1330894526      -39.1350777876       -4.8051305013  MEMB      209             0.0000000000
     24200       209  POPC      H8X             8.8671120541      -38.0708675351       -4.6289669956  MEMB      209             0.0000000000
     24201       209  POPC      H8Y            10.2281073593      -39.2660187555       -4.6705533354  MEMB      209             0.0000000000
     24202       209  POPC      C39             8.3580787570      -39.8871792831       -3.6459607993  MEMB      209             0.0000000000
     24203       209  POPC      H9X             8.3757247320      -40.9963988117       -3.7063073423  MEMB      209             0.0000000000
     24204       209  POPC      H9Y             7.3117635532      -39.5619784826       -3.8297807708  MEMB      209             0.0000000000
     24205       209  POPC      C310            8.7071936644      -39.3179322590       -2.2739205341  MEMB      209             0.0000000000
     24206       209  POPC      H10X            7.9400587739      -39.6801374924       -1.5565419398  MEMB      209             0.0000000000
     24207       209  POPC      H10Y            8.6681255745      -38.2158257704       -2.4086651569  MEMB      209             0.0000000000
     24208       209  POPC      C311           10.1260876967      -39.5460964155       -1.8170851581  MEMB      209             0.0000000000
     24209       209  POPC      H11X           10.8643097368      -39.0136202918       -2.4541239978  MEMB      209             0.0000000000
     24210       209  POPC      H11Y           10.4054336450      -40.6146258710       -1.9376324050  MEMB      209             0.0000000000
     24211       209  POPC      C312           10.4415345475      -39.0634644370       -0.4273680086  MEMB      209             0.0000000000
     24212       209  POPC      H12X            9.9201879116      -39.8577123837        0.1485573547  MEMB      209             0.0000000000
     24213       209  POPC      H12Y            9.9360460237      -38.0845775593       -0.2838997061  MEMB      209             0.0000000000
     24214       209  POPC      C313           11.9242319547      -39.0170223654       -0.0971055381  MEMB      209             0.0000000000
     24215       209  POPC      H13X           12.2303603005      -38.8999792862        0.9644542064  MEMB      209             0.0000000000
     24216       209  POPC      H13Y           12.2634803378      -38.0578178336       -0.5433772226  MEMB      209             0.0000000000
     24217       209  POPC      C314           12.8129507491      -40.0380594057       -0.7473197806  MEMB      209             0.0000000000
     24218       209  POPC      H14X           12.7735878051      -40.0213224836       -1.8574956451  MEMB      209             0.0000000000
     24219       209  POPC      H14Y           12.7157237762      -41.0730694337       -0.3553741371  MEMB      209             0.0000000000
     24220       209  POPC      C315           14.2775929867      -39.6940524755       -0.4505215157  MEMB      209             0.0000000000
     24221       209  POPC      H15X           14.6096914417      -39.8204815333        0.6021160550  MEMB      209             0.0000000000
     24222       209  POPC      H15Y           14.4487563674      -38.6417946977       -0.7632166859  MEMB      209             0.0000000000
     24223       209  POPC      C316           15.2590281008      -40.5549713715       -1.2680560894  MEMB      209             0.0000000000
     24224       209  POPC      H16X           15.4877401652      -41.5304193041       -0.7879385798  MEMB      209             0.0000000000
     24225       209  POPC      H16Y           16.1090956912      -39.8400746696       -1.2931288161  MEMB      209             0.0000000000
     24226       209  POPC      H16Z           15.0734635334      -40.7639916430       -2.3433221682  MEMB      209             0.0000000000
     24227       210  POPC      N              28.1067295788       25.4135413207      -21.0799273684  MEMB      210             0.0000000000
     24228       210  POPC      C12            29.4226984039       24.8202150887      -20.3171916286  MEMB      210             0.0000000000
     24229       210  POPC      H12A           29.8543565043       25.5955414804      -19.7016104413  MEMB      210             0.0000000000
     24230       210  POPC      H12B           30.0723306161       24.4380129094      -21.0906899384  MEMB      210             0.0000000000
     24231       210  POPC      C13            26.9724587101       25.5786974836      -20.1061062885  MEMB      210             0.0000000000
     24232       210  POPC      H13A           26.8604357879       24.5903096640      -19.6854634518  MEMB      210             0.0000000000
     24233       210  POPC      H13B           27.4973454848       26.2063753132      -19.4011846427  MEMB      210             0.0000000000
     24234       210  POPC      H13C           26.1577008350       26.1332281990      -20.5477682464  MEMB      210             0.0000000000
     24235       210  POPC      C14            28.4885206508       26.7377538313      -21.7039755351  MEMB      210             0.0000000000
     24236       210  POPC      H14A           27.7111941696       27.0907738513      -22.3654438626  MEMB      210             0.0000000000
     24237       210  POPC      H14B           28.6987360308       27.5187456950      -20.9882511600  MEMB      210             0.0000000000
     24238       210  POPC      H14C           29.4014628925       26.5498859770      -22.2495413375  MEMB      210             0.0000000000
     24239       210  POPC      C15            27.7151439806       24.4129423208      -22.0990032476  MEMB      210             0.0000000000
     24240       210  POPC      H15A           28.4906971454       24.4300650335      -22.8504181500  MEMB      210             0.0000000000
     24241       210  POPC      H15B           26.7458948927       24.7452962259      -22.4403200273  MEMB      210             0.0000000000
     24242       210  POPC      H15C           27.5336622712       23.4298130476      -21.6904433096  MEMB      210             0.0000000000
     24243       210  POPC      C11            29.2297127658       23.6843056348      -19.4020390826  MEMB      210             0.0000000000
     24244       210  POPC      H11A           30.1992518377       23.1507092656      -19.3041108912  MEMB      210             0.0000000000
     24245       210  POPC      H11B           28.5404029738       22.8709578721      -19.7145104567  MEMB      210             0.0000000000
     24246       210  POPC      P              29.6985987428       24.0170506065      -16.8167787320  MEMB      210             0.0000000000
     24247       210  POPC      O13            31.1005966883       24.1123657150      -17.2644099182  MEMB      210             0.0000000000
     24248       210  POPC      O14            29.4044155820       22.9601678821      -15.8706232833  MEMB      210             0.0000000000
     24249       210  POPC      O12            28.7041002220       24.0686425114      -18.1605609601  MEMB      210             0.0000000000
     24250       210  POPC      O11            29.3032740423       25.4038870096      -16.1793839595  MEMB      210             0.0000000000
     24251       210  POPC      C1             29.7449255810       26.6286278046      -16.7970386723  MEMB      210             0.0000000000
     24252       210  POPC      HA             29.4056519334       26.6213554581      -17.8549430633  MEMB      210             0.0000000000
     24253       210  POPC      HB             30.8539081997       26.6947024195      -16.8076585594  MEMB      210             0.0000000000
     24254       210  POPC      C2             28.8761310532       27.7715380593      -16.2150974259  MEMB      210             0.0000000000
     24255       210  POPC      HS             29.1572452723       28.7178015908      -16.7248828712  MEMB      210             0.0000000000
     24256       210  POPC      O21            28.9389300919       27.9006616257      -14.7844610516  MEMB      210             0.0000000000
     24257       210  POPC      C21            30.1427040234       28.0816964117      -14.3262002714  MEMB      210             0.0000000000
     24258       210  POPC      O22            31.1635706883       28.4646046481      -14.8876476580  MEMB      210             0.0000000000
     24259       210  POPC      C22            30.0464442764       27.7778691264      -12.8625945717  MEMB      210             0.0000000000
     24260       210  POPC      H2R            31.0817397904       27.7227376069      -12.4632894263  MEMB      210             0.0000000000
     24261       210  POPC      H2S            29.4874009083       26.8342609965      -12.6854074122  MEMB      210             0.0000000000
     24262       210  POPC      C3             27.3318091639       27.5087172770      -16.4206861716  MEMB      210             0.0000000000
     24263       210  POPC      HX             27.2645739236       27.2226553207      -17.4921193803  MEMB      210             0.0000000000
     24264       210  POPC      HY             26.7509015232       28.4319928855      -16.2099024894  MEMB      210             0.0000000000
     24265       210  POPC      O31            26.8637628992       26.3521694402      -15.6731719404  MEMB      210             0.0000000000
     24266       210  POPC      C31            26.5688586042       26.4882052705      -14.3652196391  MEMB      210             0.0000000000
     24267       210  POPC      O32            26.4235365328       27.5734107232      -13.8667093006  MEMB      210             0.0000000000
     24268       210  POPC      C32            26.6377539679       25.1624670977      -13.5913086611  MEMB      210             0.0000000000
     24269       210  POPC      H2X            27.6272525917       24.6947951732      -13.7823482170  MEMB      210             0.0000000000
     24270       210  POPC      H2Y            25.8470315539       24.3989113381      -13.7527468842  MEMB      210             0.0000000000
     24271       210  POPC      C23            29.2236621394       28.8678231704      -12.1542836919  MEMB      210             0.0000000000
     24272       210  POPC      H3R            28.2204344408       29.0017574299      -12.6124507463  MEMB      210             0.0000000000
     24273       210  POPC      H3S            29.8253950942       29.7852589386      -12.3290686248  MEMB      210             0.0000000000
     24274       210  POPC      C24            29.0758734303       28.6533563902      -10.6548674097  MEMB      210             0.0000000000
     24275       210  POPC      H4R            28.6181982008       27.6583057755      -10.4685105152  MEMB      210             0.0000000000
     24276       210  POPC      H4S            28.4255637929       29.4627072470      -10.2594323694  MEMB      210             0.0000000000
     24277       210  POPC      C25            30.4261246099       28.6675577009       -9.8783302061  MEMB      210             0.0000000000
     24278       210  POPC      H5R            30.8199380766       29.6765041637       -9.6308249813  MEMB      210             0.0000000000
     24279       210  POPC      H5S            31.2062166709       28.0990571919      -10.4284071764  MEMB      210             0.0000000000
     24280       210  POPC      C26            30.4040237439       27.9633879781       -8.4712064865  MEMB      210             0.0000000000
     24281       210  POPC      H6R            31.3665120294       28.3354653080       -8.0595082199  MEMB      210             0.0000000000
     24282       210  POPC      H6S            30.3838185691       26.8728598655       -8.6825386835  MEMB      210             0.0000000000
     24283       210  POPC      C27            29.1992663024       28.2593515242       -7.5948303160  MEMB      210             0.0000000000
     24284       210  POPC      H7R            29.3763817786       27.6242393834       -6.7006361905  MEMB      210             0.0000000000
     24285       210  POPC      H7S            28.3633108460       27.7275340481       -8.0974923840  MEMB      210             0.0000000000
     24286       210  POPC      C28            28.8858070086       29.7048163539       -7.2480380211  MEMB      210             0.0000000000
     24287       210  POPC      H8R            28.4610146112       30.1524908258       -8.1718669135  MEMB      210             0.0000000000
     24288       210  POPC      H8S            29.8498231327       30.1403948786       -6.9085304458  MEMB      210             0.0000000000
     24289       210  POPC      C29            27.9063756917       29.7815049199       -6.1030578238  MEMB      210             0.0000000000
     24290       210  POPC      H91            26.8721468263       29.5643335235       -6.4083561101  MEMB      210             0.0000000000
     24291       210  POPC      C210           28.1786365176       29.8633083681       -4.8166459661  MEMB      210             0.0000000000
     24292       210  POPC      H101           27.3860810325       29.7028514997       -4.0709178922  MEMB      210             0.0000000000
     24293       210  POPC      C211           29.5714226988       29.8234891638       -4.1866692516  MEMB      210             0.0000000000
     24294       210  POPC      H11R           30.0307565448       30.7679023748       -4.5491841008  MEMB      210             0.0000000000
     24295       210  POPC      H11S           30.1785509838       28.9990254891       -4.6179181199  MEMB      210             0.0000000000
     24296       210  POPC      C212           29.5321933945       29.7696590040       -2.6525009159  MEMB      210             0.0000000000
     24297       210  POPC      H12R           28.5682527287       29.3599743792       -2.2819636861  MEMB      210             0.0000000000
     24298       210  POPC      H12S           29.6291090073       30.7573055472       -2.1530195458  MEMB      210             0.0000000000
     24299       210  POPC      C213           30.6676924418       28.7690466794       -2.1509866991  MEMB      210             0.0000000000
     24300       210  POPC      H13R           30.7932154174       27.8917507008       -2.8209976124  MEMB      210             0.0000000000
     24301       210  POPC      H13S           30.3107792095       28.4158879426       -1.1599197717  MEMB      210             0.0000000000
     24302       210  POPC      C214           32.0442937804       29.4317204991       -1.9551029464  MEMB      210             0.0000000000
     24303       210  POPC      H14R           31.8099989303       29.8938470820       -0.9723175655  MEMB      210             0.0000000000
     24304       210  POPC      H14S           32.4669753446       30.0560368955       -2.7711233641  MEMB      210             0.0000000000
     24305       210  POPC      C215           33.0740144057       28.2807862130       -1.5759843093  MEMB      210             0.0000000000
     24306       210  POPC      H15R           33.4570203127       27.8350716211       -2.5188342298  MEMB      210             0.0000000000
     24307       210  POPC      H15S           32.6791147221       27.4083054220       -1.0128209127  MEMB      210             0.0000000000
     24308       210  POPC      C216           34.2478401687       28.8532418514       -0.8309643281  MEMB      210             0.0000000000
     24309       210  POPC      H16R           33.9011461269       29.4076395322        0.0672390060  MEMB      210             0.0000000000
     24310       210  POPC      H16S           34.7114322089       29.5830615568       -1.5286511334  MEMB      210             0.0000000000
     24311       210  POPC      C217           35.3200680471       27.8187065776       -0.3108462647  MEMB      210             0.0000000000
     24312       210  POPC      H17R           36.2317241159       28.3445903962        0.0450330753  MEMB      210             0.0000000000
     24313       210  POPC      H17S           35.6693769171       27.1212942281       -1.1019983812  MEMB      210             0.0000000000
     24314       210  POPC      C218           34.9060025254       26.9356857814        0.8365746508  MEMB      210             0.0000000000
     24315       210  POPC      H18R           34.0269832227       26.2995100378        0.5979811019  MEMB      210             0.0000000000
     24316       210  POPC      H18S           34.7609389510       27.4281830703        1.8218278609  MEMB      210             0.0000000000
     24317       210  POPC      H18T           35.6613147961       26.1233379617        0.8991477396  MEMB      210             0.0000000000
     24318       210  POPC      C33            26.4659091868       25.4848443160      -12.0638096739  MEMB      210             0.0000000000
     24319       210  POPC      H3X            25.4899389959       25.9966848079      -11.9230161674  MEMB      210             0.0000000000
     24320       210  POPC      H3Y            27.2387138368       26.1854031217      -11.6813035853  MEMB      210             0.0000000000
     24321       210  POPC      C34            26.5243825441       24.2527508087      -11.1830154566  MEMB      210             0.0000000000
     24322       210  POPC      H4X            27.5952820651       23.9593238281      -11.1456558848  MEMB      210             0.0000000000
     24323       210  POPC      H4Y            25.8870072962       23.4220139919      -11.5544320004  MEMB      210             0.0000000000
     24324       210  POPC      C35            25.9795261888       24.5254211792       -9.7568395281  MEMB      210             0.0000000000
     24325       210  POPC      H5X            25.6403978379       23.5512959587       -9.3440524367  MEMB      210             0.0000000000
     24326       210  POPC      H5Y            25.0117092056       25.0599042495       -9.8662881498  MEMB      210             0.0000000000
     24327       210  POPC      C36            26.8271695426       25.4575933407       -8.8983807520  MEMB      210             0.0000000000
     24328       210  POPC      H6X            26.5682273970       26.5145529277       -9.1222244872  MEMB      210             0.0000000000
     24329       210  POPC      H6Y            27.8954410021       25.2975534993       -9.1581969988  MEMB      210             0.0000000000
     24330       210  POPC      C37            26.7166086655       25.3083305637       -7.3458380000  MEMB      210             0.0000000000
     24331       210  POPC      H7X            25.6613269549       25.0092775104       -7.1690079013  MEMB      210             0.0000000000
     24332       210  POPC      H7Y            27.0837095859       26.2492491695       -6.8829879372  MEMB      210             0.0000000000
     24333       210  POPC      C38            27.5226601748       24.0452091344       -6.9782554946  MEMB      210             0.0000000000
     24334       210  POPC      H8X            28.5958211390       24.1424055017       -7.2488095486  MEMB      210             0.0000000000
     24335       210  POPC      H8Y            26.9330049840       23.2317210258       -7.4524539125  MEMB      210             0.0000000000
     24336       210  POPC      C39            27.4715145843       23.8109382113       -5.4749088064  MEMB      210             0.0000000000
     24337       210  POPC      H9X            28.0264125219       22.8531341372       -5.3799318160  MEMB      210             0.0000000000
     24338       210  POPC      H9Y            26.5087416605       23.6311247441       -4.9504507246  MEMB      210             0.0000000000
     24339       210  POPC      C310           28.1174773108       24.9463790727       -4.6217019741  MEMB      210             0.0000000000
     24340       210  POPC      H10X           28.8279355037       25.5280135017       -5.2472185842  MEMB      210             0.0000000000
     24341       210  POPC      H10Y           28.7003329305       24.4165315387       -3.8382083996  MEMB      210             0.0000000000
     24342       210  POPC      C311           27.1203428522       25.9361540514       -3.9862092753  MEMB      210             0.0000000000
     24343       210  POPC      H11X           26.3424840225       26.3339732149       -4.6725011456  MEMB      210             0.0000000000
     24344       210  POPC      H11Y           27.7622778798       26.8027244769       -3.7191961708  MEMB      210             0.0000000000
     24345       210  POPC      C312           26.3459576936       25.3524788571       -2.7491542706  MEMB      210             0.0000000000
     24346       210  POPC      H12X           26.2775294650       24.2438066954       -2.7711730169  MEMB      210             0.0000000000
     24347       210  POPC      H12Y           25.3849690208       25.8705441095       -2.5431676515  MEMB      210             0.0000000000
     24348       210  POPC      C313           27.0814079105       25.5162731359       -1.3783554487  MEMB      210             0.0000000000
     24349       210  POPC      H13X           27.1580578703       26.6182533866       -1.2596756364  MEMB      210             0.0000000000
     24350       210  POPC      H13Y           28.1374917721       25.1886870310       -1.4865001958  MEMB      210             0.0000000000
     24351       210  POPC      C314           26.4905690210       24.8283015411       -0.1096424229  MEMB      210             0.0000000000
     24352       210  POPC      H14X           25.3860483891       24.9479078146       -0.1026067208  MEMB      210             0.0000000000
     24353       210  POPC      H14Y           27.0218442481       25.2299874116        0.7795805440  MEMB      210             0.0000000000
     24354       210  POPC      C315           26.7380374513       23.2737786269        0.0216364534  MEMB      210             0.0000000000
     24355       210  POPC      H15X           26.0202925508       22.7315402839       -0.6303917872  MEMB      210             0.0000000000
     24356       210  POPC      H15Y           26.3965853121       22.9988791598        1.0425007537  MEMB      210             0.0000000000
     24357       210  POPC      C316           28.1666312895       22.7930317790       -0.1119708311  MEMB      210             0.0000000000
     24358       210  POPC      H16X           28.1424777430       21.7110889884        0.1393000749  MEMB      210             0.0000000000
     24359       210  POPC      H16Y           28.8033079299       23.3139249068        0.6347788808  MEMB      210             0.0000000000
     24360       210  POPC      H16Z           28.5145048764       22.9331027209       -1.1577649054  MEMB      210             0.0000000000
     24361       211  POPC      N             -27.9624357579      -24.5873489769      -18.9550884912  MEMB      211             0.0000000000
     24362       211  POPC      C12           -28.8766616555      -25.9032815696      -18.8243155711  MEMB      211             0.0000000000
     24363       211  POPC      H12A          -28.7343544555      -26.1885016509      -17.7924249545  MEMB      211             0.0000000000
     24364       211  POPC      H12B          -28.5067481754      -26.7012335479      -19.4510824644  MEMB      211             0.0000000000
     24365       211  POPC      C13           -28.3389819196      -23.9310146709      -20.1899188454  MEMB      211             0.0000000000
     24366       211  POPC      H13A          -29.3806292818      -23.9398699504      -20.4750370996  MEMB      211             0.0000000000
     24367       211  POPC      H13B          -27.9978860784      -22.9067499521      -20.2205064961  MEMB      211             0.0000000000
     24368       211  POPC      H13C          -27.8627095272      -24.5217725335      -20.9584041160  MEMB      211             0.0000000000
     24369       211  POPC      C14           -28.2138625517      -23.7318657285      -17.8091722300  MEMB      211             0.0000000000
     24370       211  POPC      H14A          -29.2759537599      -23.7449815048      -17.6137486468  MEMB      211             0.0000000000
     24371       211  POPC      H14B          -27.6865048581      -24.1489206442      -16.9639745342  MEMB      211             0.0000000000
     24372       211  POPC      H14C          -27.7958363190      -22.7973875274      -18.1532720286  MEMB      211             0.0000000000
     24373       211  POPC      C15           -26.5180349878      -24.9583103163      -19.0587131011  MEMB      211             0.0000000000
     24374       211  POPC      H15A          -26.3500614113      -25.7364453342      -19.7885696678  MEMB      211             0.0000000000
     24375       211  POPC      H15B          -26.1229143886      -25.4317984609      -18.1720966242  MEMB      211             0.0000000000
     24376       211  POPC      H15C          -25.8981028266      -24.0740578113      -19.0721910722  MEMB      211             0.0000000000
     24377       211  POPC      C11           -30.3855704453      -25.6549351697      -19.0342998321  MEMB      211             0.0000000000
     24378       211  POPC      H11A          -30.8521562727      -26.6211032082      -18.7459636621  MEMB      211             0.0000000000
     24379       211  POPC      H11B          -30.5981458670      -25.5821964072      -20.1223447145  MEMB      211             0.0000000000
     24380       211  POPC      P             -32.0386493756      -23.6601267890      -19.1109511374  MEMB      211             0.0000000000
     24381       211  POPC      O13           -32.9606347587      -24.5901858898      -19.8490404618  MEMB      211             0.0000000000
     24382       211  POPC      O14           -31.3171351907      -22.6321487628      -19.9677201172  MEMB      211             0.0000000000
     24383       211  POPC      O12           -30.9356045049      -24.5006174967      -18.2928394351  MEMB      211             0.0000000000
     24384       211  POPC      O11           -32.6968906455      -22.8725851265      -17.9079407760  MEMB      211             0.0000000000
     24385       211  POPC      C1            -32.0040709061      -22.2315590839      -16.8086170492  MEMB      211             0.0000000000
     24386       211  POPC      HA            -32.4662164136      -21.2404529436      -16.6125271508  MEMB      211             0.0000000000
     24387       211  POPC      HB            -30.9651873886      -21.9850053438      -17.1156238874  MEMB      211             0.0000000000
     24388       211  POPC      C2            -32.1907160036      -23.0269546914      -15.4860257665  MEMB      211             0.0000000000
     24389       211  POPC      HS            -31.6921352134      -24.0114781730      -15.6142897010  MEMB      211             0.0000000000
     24390       211  POPC      O21           -33.5611882283      -23.2378370753      -15.0611305790  MEMB      211             0.0000000000
     24391       211  POPC      C21           -34.2198810589      -24.2710651749      -15.5410193275  MEMB      211             0.0000000000
     24392       211  POPC      O22           -33.8408274228      -25.0559626160      -16.3877944558  MEMB      211             0.0000000000
     24393       211  POPC      C22           -35.5694425694      -24.3138384365      -14.7486934482  MEMB      211             0.0000000000
     24394       211  POPC      H2R           -36.3041645304      -24.2332598244      -15.5781578556  MEMB      211             0.0000000000
     24395       211  POPC      H2S           -35.6469676752      -23.5056916570      -13.9902677552  MEMB      211             0.0000000000
     24396       211  POPC      C3            -31.4667051805      -22.1859249803      -14.3661098324  MEMB      211             0.0000000000
     24397       211  POPC      HX            -31.7693846083      -21.1175603202      -14.4022083555  MEMB      211             0.0000000000
     24398       211  POPC      HY            -30.3770186582      -22.2616161109      -14.5690264589  MEMB      211             0.0000000000
     24399       211  POPC      O31           -31.6886431641      -22.8323226962      -13.0841878876  MEMB      211             0.0000000000
     24400       211  POPC      C31           -30.9791736246      -22.2089322281      -12.1485027164  MEMB      211             0.0000000000
     24401       211  POPC      O32           -30.2730806013      -21.2339661129      -12.3658774623  MEMB      211             0.0000000000
     24402       211  POPC      C32           -30.9466602620      -22.9700460757      -10.7918993867  MEMB      211             0.0000000000
     24403       211  POPC      H2X           -30.3210888945      -23.8757104519      -10.9427435383  MEMB      211             0.0000000000
     24404       211  POPC      H2Y           -31.8945418310      -23.5107829819      -10.5834651167  MEMB      211             0.0000000000
     24405       211  POPC      C23           -35.6774662660      -25.6491577882      -13.8942733445  MEMB      211             0.0000000000
     24406       211  POPC      H3R           -35.7544121048      -26.5242667082      -14.5744086121  MEMB      211             0.0000000000
     24407       211  POPC      H3S           -36.6635358213      -25.6741291360      -13.3830349505  MEMB      211             0.0000000000
     24408       211  POPC      C24           -34.4966047821      -25.7081115490      -12.8217800147  MEMB      211             0.0000000000
     24409       211  POPC      H4R           -34.4832931640      -24.8236117830      -12.1496162375  MEMB      211             0.0000000000
     24410       211  POPC      H4S           -33.5257995873      -25.6848877944      -13.3615196584  MEMB      211             0.0000000000
     24411       211  POPC      C25           -34.5678794504      -26.9311131563      -11.9877989412  MEMB      211             0.0000000000
     24412       211  POPC      H5R           -34.5168869367      -27.8474986715      -12.6138646755  MEMB      211             0.0000000000
     24413       211  POPC      H5S           -35.5851839404      -27.0291265263      -11.5521315121  MEMB      211             0.0000000000
     24414       211  POPC      C26           -33.5495134409      -27.0544239854      -10.8690229859  MEMB      211             0.0000000000
     24415       211  POPC      H6R           -32.5159569264      -26.9714536495      -11.2680195940  MEMB      211             0.0000000000
     24416       211  POPC      H6S           -33.7133177625      -28.0533191973      -10.4110965211  MEMB      211             0.0000000000
     24417       211  POPC      C27           -33.6558621817      -25.9933620815       -9.7061538872  MEMB      211             0.0000000000
     24418       211  POPC      H7R           -33.4465862195      -24.9877429741      -10.1295389904  MEMB      211             0.0000000000
     24419       211  POPC      H7S           -32.8259813175      -26.2104396260       -9.0001112015  MEMB      211             0.0000000000
     24420       211  POPC      C28           -34.9666000881      -26.0245733625       -8.8257312303  MEMB      211             0.0000000000
     24421       211  POPC      H8R           -35.2604630228      -27.0799776743       -8.6411051059  MEMB      211             0.0000000000
     24422       211  POPC      H8S           -35.6674233373      -25.6262997691       -9.5902875805  MEMB      211             0.0000000000
     24423       211  POPC      C29           -34.9187945156      -25.1206160892       -7.6376627356  MEMB      211             0.0000000000
     24424       211  POPC      H91           -35.5008636220      -24.2118012979       -7.8503861514  MEMB      211             0.0000000000
     24425       211  POPC      C210          -34.4636004020      -25.4445539951       -6.3830432058  MEMB      211             0.0000000000
     24426       211  POPC      H101          -34.6779296529      -24.7645106575       -5.5454247918  MEMB      211             0.0000000000
     24427       211  POPC      C211          -33.9443265674      -26.6811158950       -5.8327188207  MEMB      211             0.0000000000
     24428       211  POPC      H11R          -32.8357478303      -26.6468959262       -5.8975523724  MEMB      211             0.0000000000
     24429       211  POPC      H11S          -34.1465331816      -27.5350974903       -6.5140029394  MEMB      211             0.0000000000
     24430       211  POPC      C212          -34.3939180673      -27.0480159763       -4.4187826045  MEMB      211             0.0000000000
     24431       211  POPC      H12R          -33.9464948009      -28.0258477632       -4.1395364590  MEMB      211             0.0000000000
     24432       211  POPC      H12S          -35.4732425845      -27.3109868548       -4.4338095894  MEMB      211             0.0000000000
     24433       211  POPC      C213          -33.8660834719      -26.1542129424       -3.3339295403  MEMB      211             0.0000000000
     24434       211  POPC      H13R          -34.4764058638      -25.2276017072       -3.2771921626  MEMB      211             0.0000000000
     24435       211  POPC      H13S          -32.8898555562      -25.7965681318       -3.7255792476  MEMB      211             0.0000000000
     24436       211  POPC      C214          -33.7477065503      -26.7473756108       -1.9136757933  MEMB      211             0.0000000000
     24437       211  POPC      H14R          -33.3697165878      -27.7882592900       -2.0031458229  MEMB      211             0.0000000000
     24438       211  POPC      H14S          -34.7108969326      -26.6258188306       -1.3734814781  MEMB      211             0.0000000000
     24439       211  POPC      C215          -32.7783231570      -25.9502315404       -1.0960275897  MEMB      211             0.0000000000
     24440       211  POPC      H15R          -32.9212607593      -24.8546407955       -0.9795346842  MEMB      211             0.0000000000
     24441       211  POPC      H15S          -31.8476309173      -26.1574084888       -1.6663012432  MEMB      211             0.0000000000
     24442       211  POPC      C216          -32.6051212503      -26.5959241854        0.3028899962  MEMB      211             0.0000000000
     24443       211  POPC      H16R          -32.5300584911      -27.6868586112        0.1065510702  MEMB      211             0.0000000000
     24444       211  POPC      H16S          -33.5272430701      -26.3839043684        0.8851789724  MEMB      211             0.0000000000
     24445       211  POPC      C217          -31.4481844459      -26.0406761188        1.0655196767  MEMB      211             0.0000000000
     24446       211  POPC      H17R          -31.7059096014      -24.9764292109        1.2533429791  MEMB      211             0.0000000000
     24447       211  POPC      H17S          -30.5855482936      -26.0478076038        0.3654286272  MEMB      211             0.0000000000
     24448       211  POPC      C218          -31.1070526365      -26.5851598586        2.4365526310  MEMB      211             0.0000000000
     24449       211  POPC      H18R          -31.2497198231      -27.6869004525        2.4249501131  MEMB      211             0.0000000000
     24450       211  POPC      H18S          -31.8132612081      -26.1785219154        3.1916929891  MEMB      211             0.0000000000
     24451       211  POPC      H18T          -30.0684727802      -26.2398435059        2.6274205123  MEMB      211             0.0000000000
     24452       211  POPC      C33           -30.3394315422      -22.1028835864       -9.7077096530  MEMB      211             0.0000000000
     24453       211  POPC      H3X           -31.0003983270      -21.2449556713       -9.4599117728  MEMB      211             0.0000000000
     24454       211  POPC      H3Y           -29.4161197508      -21.6288916737      -10.1041284000  MEMB      211             0.0000000000
     24455       211  POPC      C34           -29.9554373639      -22.9429511705       -8.4594555485  MEMB      211             0.0000000000
     24456       211  POPC      H4X           -29.3686035586      -22.2846104019       -7.7837826506  MEMB      211             0.0000000000
     24457       211  POPC      H4Y           -29.3583359773      -23.8068769313       -8.8219794252  MEMB      211             0.0000000000
     24458       211  POPC      C35           -31.1683126051      -23.5684843452       -7.6500920020  MEMB      211             0.0000000000
     24459       211  POPC      H5X           -31.6269510674      -24.3710323431       -8.2664433805  MEMB      211             0.0000000000
     24460       211  POPC      H5Y           -31.8981658846      -22.7617525577       -7.4246616340  MEMB      211             0.0000000000
     24461       211  POPC      C36           -30.7770302288      -24.4240168759       -6.4452879177  MEMB      211             0.0000000000
     24462       211  POPC      H6X           -29.9420387847      -25.1180905495       -6.6805988326  MEMB      211             0.0000000000
     24463       211  POPC      H6Y           -31.6541085000      -24.9835909986       -6.0555040520  MEMB      211             0.0000000000
     24464       211  POPC      C37           -30.2238417383      -23.5986353267       -5.2757208288  MEMB      211             0.0000000000
     24465       211  POPC      H7X           -30.9862055200      -22.8989565805       -4.8712801011  MEMB      211             0.0000000000
     24466       211  POPC      H7Y           -29.4427534287      -22.9524234986       -5.7302889458  MEMB      211             0.0000000000
     24467       211  POPC      C38           -29.7715556969      -24.5028375252       -4.1082386435  MEMB      211             0.0000000000
     24468       211  POPC      H8X           -29.3828059410      -25.4718083532       -4.4880934085  MEMB      211             0.0000000000
     24469       211  POPC      H8Y           -30.6861669173      -24.8767779068       -3.6003252255  MEMB      211             0.0000000000
     24470       211  POPC      C39           -28.8489179129      -23.8420484921       -3.0499651303  MEMB      211             0.0000000000
     24471       211  POPC      H9X           -27.9106935469      -23.5642732574       -3.5761745073  MEMB      211             0.0000000000
     24472       211  POPC      H9Y           -28.5710233685      -24.6687767685       -2.3617675224  MEMB      211             0.0000000000
     24473       211  POPC      C310          -29.1885770818      -22.5675793012       -2.3655759088  MEMB      211             0.0000000000
     24474       211  POPC      H10X          -30.2072592079      -22.6461508148       -1.9291865096  MEMB      211             0.0000000000
     24475       211  POPC      H10Y          -29.5277074967      -21.7923085234       -3.0854821207  MEMB      211             0.0000000000
     24476       211  POPC      C311          -28.1342552657      -22.0962598072       -1.4040556432  MEMB      211             0.0000000000
     24477       211  POPC      H11X          -28.3611399358      -21.0820455479       -1.0113535384  MEMB      211             0.0000000000
     24478       211  POPC      H11Y          -27.1603634414      -22.0498618117       -1.9366921266  MEMB      211             0.0000000000
     24479       211  POPC      C312          -28.0157193864      -23.1052303949       -0.1841203796  MEMB      211             0.0000000000
     24480       211  POPC      H12X          -27.2189250107      -22.6756427335        0.4600027366  MEMB      211             0.0000000000
     24481       211  POPC      H12Y          -27.6561354106      -24.0769860903       -0.5850093835  MEMB      211             0.0000000000
     24482       211  POPC      C313          -29.2588356444      -23.3022923529        0.6470874082  MEMB      211             0.0000000000
     24483       211  POPC      H13X          -29.1599623984      -24.0084263257        1.4990980493  MEMB      211             0.0000000000
     24484       211  POPC      H13Y          -30.0950794114      -23.7206850178        0.0471178249  MEMB      211             0.0000000000
     24485       211  POPC      C314          -29.7788387701      -21.9198918321        1.1943530886  MEMB      211             0.0000000000
     24486       211  POPC      H14X          -30.8311446706      -22.0296403146        1.5333633070  MEMB      211             0.0000000000
     24487       211  POPC      H14Y          -29.8191538777      -21.2299694392        0.3244660550  MEMB      211             0.0000000000
     24488       211  POPC      C315          -28.8522420722      -21.3117577474        2.2889421558  MEMB      211             0.0000000000
     24489       211  POPC      H15X          -27.8099180989      -21.1523515787        1.9389829346  MEMB      211             0.0000000000
     24490       211  POPC      H15Y          -28.9527419840      -22.0122757007        3.1453865128  MEMB      211             0.0000000000
     24491       211  POPC      C316          -29.3596747312      -19.9426881379        2.7473961007  MEMB      211             0.0000000000
     24492       211  POPC      H16X          -29.4034985366      -19.2225141745        1.9025575740  MEMB      211             0.0000000000
     24493       211  POPC      H16Y          -28.8419101405      -19.6256648978        3.6778457511  MEMB      211             0.0000000000
     24494       211  POPC      H16Z          -30.4449915889      -20.0176118702        2.9727706761  MEMB      211             0.0000000000
     24495       212  POPC      N             -37.3556752764       16.6837323990      -21.0600229089  MEMB      212             0.0000000000
     24496       212  POPC      C12           -36.3795265198       17.3807506793      -20.1696486978  MEMB      212             0.0000000000
     24497       212  POPC      H12A          -36.2280383151       18.4313176633      -20.3690486668  MEMB      212             0.0000000000
     24498       212  POPC      H12B          -35.3940627290       17.0344206165      -20.4440870354  MEMB      212             0.0000000000
     24499       212  POPC      C13           -38.6937514694       17.4565530665      -21.0530835143  MEMB      212             0.0000000000
     24500       212  POPC      H13A          -38.4436202111       18.3797369448      -21.5546470467  MEMB      212             0.0000000000
     24501       212  POPC      H13B          -39.4104483784       16.9725080516      -21.6999574824  MEMB      212             0.0000000000
     24502       212  POPC      H13C          -39.0927075554       17.6721372582      -20.0729011557  MEMB      212             0.0000000000
     24503       212  POPC      C14           -36.7906650356       16.5270815758      -22.4207539858  MEMB      212             0.0000000000
     24504       212  POPC      H14A          -35.7767643369       16.1662735642      -22.3300736772  MEMB      212             0.0000000000
     24505       212  POPC      H14B          -37.3307715674       15.7484741386      -22.9388806499  MEMB      212             0.0000000000
     24506       212  POPC      H14C          -36.7240305233       17.4754170579      -22.9332181245  MEMB      212             0.0000000000
     24507       212  POPC      C15           -37.6511555508       15.2846409379      -20.5300320384  MEMB      212             0.0000000000
     24508       212  POPC      H15A          -37.9518249744       15.3871398560      -19.4978053985  MEMB      212             0.0000000000
     24509       212  POPC      H15B          -36.7846158563       14.6464427745      -20.6206533089  MEMB      212             0.0000000000
     24510       212  POPC      H15C          -38.5110949885       14.8638577575      -21.0298778676  MEMB      212             0.0000000000
     24511       212  POPC      C11           -36.4698568877       17.1618968738      -18.6648458958  MEMB      212             0.0000000000
     24512       212  POPC      H11A          -35.6463297554       17.7306002002      -18.1824555631  MEMB      212             0.0000000000
     24513       212  POPC      H11B          -36.1194170389       16.1531510638      -18.3583417100  MEMB      212             0.0000000000
     24514       212  POPC      P             -38.4426112589       16.6222370826      -17.0205108474  MEMB      212             0.0000000000
     24515       212  POPC      O13           -37.7631485031       15.2827246615      -16.8527706159  MEMB      212             0.0000000000
     24516       212  POPC      O14           -39.9144454013       16.6165785617      -17.3813864729  MEMB      212             0.0000000000
     24517       212  POPC      O12           -37.7655536269       17.4749253468      -18.0921130908  MEMB      212             0.0000000000
     24518       212  POPC      O11           -38.1007347696       17.4808791171      -15.7548319356  MEMB      212             0.0000000000
     24519       212  POPC      C1            -38.4863311173       18.8431786897      -15.8878524997  MEMB      212             0.0000000000
     24520       212  POPC      HA            -39.4295142493       19.0493895879      -16.4375828210  MEMB      212             0.0000000000
     24521       212  POPC      HB            -37.6918161008       19.5552039452      -16.1978313170  MEMB      212             0.0000000000
     24522       212  POPC      C2            -38.9325623021       19.3500179428      -14.4247741152  MEMB      212             0.0000000000
     24523       212  POPC      HS            -38.7267765299       20.4353999130      -14.3067942587  MEMB      212             0.0000000000
     24524       212  POPC      O21           -38.1011149463       18.7709578040      -13.3910061111  MEMB      212             0.0000000000
     24525       212  POPC      C21           -36.8024595681       19.0230762480      -13.4831631215  MEMB      212             0.0000000000
     24526       212  POPC      O22           -36.2713380998       19.8939122341      -14.1628664154  MEMB      212             0.0000000000
     24527       212  POPC      C22           -36.1968802010       17.9035332742      -12.5978527937  MEMB      212             0.0000000000
     24528       212  POPC      H2R           -35.8190352602       17.0933051964      -13.2574626639  MEMB      212             0.0000000000
     24529       212  POPC      H2S           -36.9500333732       17.4219225930      -11.9382074216  MEMB      212             0.0000000000
     24530       212  POPC      C3            -40.3678118991       19.0631233702      -13.9343348373  MEMB      212             0.0000000000
     24531       212  POPC      HX            -41.0774800437       19.6444405990      -14.5610425763  MEMB      212             0.0000000000
     24532       212  POPC      HY            -40.4267484465       19.4432518184      -12.8920539611  MEMB      212             0.0000000000
     24533       212  POPC      O31           -40.6234591752       17.6699051460      -14.1062772512  MEMB      212             0.0000000000
     24534       212  POPC      C31           -40.7824317738       17.0310410868      -12.9882122077  MEMB      212             0.0000000000
     24535       212  POPC      O32           -40.8638489831       17.4877242672      -11.8385087905  MEMB      212             0.0000000000
     24536       212  POPC      C32           -40.8794455701       15.5220899352      -13.3331692228  MEMB      212             0.0000000000
     24537       212  POPC      H2X           -40.7481369316       15.3588811949      -14.4242432110  MEMB      212             0.0000000000
     24538       212  POPC      H2Y           -41.8791886260       15.1529710102      -13.0191861162  MEMB      212             0.0000000000
     24539       212  POPC      C23           -35.0759642847       18.4217650228      -11.8140555980  MEMB      212             0.0000000000
     24540       212  POPC      H3R           -34.3245151177       18.7891432533      -12.5452728989  MEMB      212             0.0000000000
     24541       212  POPC      H3S           -34.5856719110       17.5921927139      -11.2611140451  MEMB      212             0.0000000000
     24542       212  POPC      C24           -35.4680365741       19.5267195427      -10.8847757427  MEMB      212             0.0000000000
     24543       212  POPC      H4R           -36.2537724093       20.2108304254      -11.2706928274  MEMB      212             0.0000000000
     24544       212  POPC      H4S           -34.5023146504       19.9889270031      -10.5880157684  MEMB      212             0.0000000000
     24545       212  POPC      C25           -36.1378900688       19.0229777434       -9.5400133497  MEMB      212             0.0000000000
     24546       212  POPC      H5R           -35.7944617332       19.7089877785       -8.7364159722  MEMB      212             0.0000000000
     24547       212  POPC      H5S           -35.9273602035       17.9343753571       -9.4697080102  MEMB      212             0.0000000000
     24548       212  POPC      C26           -37.6494381687       18.9613925186       -9.6971779472  MEMB      212             0.0000000000
     24549       212  POPC      H6R           -37.8906689447       18.0022908467      -10.2033920389  MEMB      212             0.0000000000
     24550       212  POPC      H6S           -38.0897175368       19.7893168388      -10.2930104190  MEMB      212             0.0000000000
     24551       212  POPC      C27           -38.3812246479       19.1249562685       -8.3754229794  MEMB      212             0.0000000000
     24552       212  POPC      H7R           -37.8743963109       20.0069011671       -7.9286354879  MEMB      212             0.0000000000
     24553       212  POPC      H7S           -38.2220896118       18.2343757488       -7.7305487782  MEMB      212             0.0000000000
     24554       212  POPC      C28           -39.9238723222       19.5223796626       -8.5722372447  MEMB      212             0.0000000000
     24555       212  POPC      H8R           -40.6093602852       18.6876710384       -8.8324078124  MEMB      212             0.0000000000
     24556       212  POPC      H8S           -39.9726215199       20.2202434537       -9.4353305449  MEMB      212             0.0000000000
     24557       212  POPC      C29           -40.5367592777       20.2163118497       -7.3766676519  MEMB      212             0.0000000000
     24558       212  POPC      H91           -40.1334205260       21.2181563848       -7.1678007732  MEMB      212             0.0000000000
     24559       212  POPC      C210          -41.4302162652       19.6077422374       -6.5305559676  MEMB      212             0.0000000000
     24560       212  POPC      H101          -41.7903350895       20.1304163389       -5.6321537403  MEMB      212             0.0000000000
     24561       212  POPC      C211          -41.8749340462       18.1291964781       -6.7194194195  MEMB      212             0.0000000000
     24562       212  POPC      H11R          -41.8676853802       17.7626539594       -7.7681883674  MEMB      212             0.0000000000
     24563       212  POPC      H11S          -42.9146211874       17.9425399776       -6.3751370615  MEMB      212             0.0000000000
     24564       212  POPC      C212          -41.1368333830       17.1293754030       -5.8197662353  MEMB      212             0.0000000000
     24565       212  POPC      H12R          -41.3475080587       17.3070384139       -4.7434893615  MEMB      212             0.0000000000
     24566       212  POPC      H12S          -40.0330051740       17.1064705338       -5.9437000193  MEMB      212             0.0000000000
     24567       212  POPC      C213          -41.5384683671       15.7265323429       -6.2470224695  MEMB      212             0.0000000000
     24568       212  POPC      H13R          -41.2747693891       15.5403785200       -7.3100986454  MEMB      212             0.0000000000
     24569       212  POPC      H13S          -42.6486635357       15.7008120779       -6.2134647896  MEMB      212             0.0000000000
     24570       212  POPC      C214          -40.9474842206       14.6963791428       -5.3084164976  MEMB      212             0.0000000000
     24571       212  POPC      H14R          -39.8712866513       14.9715497917       -5.2883976279  MEMB      212             0.0000000000
     24572       212  POPC      H14S          -41.0330726733       13.6961099718       -5.7842919614  MEMB      212             0.0000000000
     24573       212  POPC      C215          -41.5267867435       14.5626528710       -3.8906398347  MEMB      212             0.0000000000
     24574       212  POPC      H15R          -42.4922118535       14.0141001429       -3.9275962617  MEMB      212             0.0000000000
     24575       212  POPC      H15S          -41.6324078544       15.5899131439       -3.4808823422  MEMB      212             0.0000000000
     24576       212  POPC      C216          -40.6799923694       13.8781459741       -2.8701852858  MEMB      212             0.0000000000
     24577       212  POPC      H16R          -40.1273550302       13.0479882385       -3.3598286962  MEMB      212             0.0000000000
     24578       212  POPC      H16S          -41.2857214774       13.3661403236       -2.0921969587  MEMB      212             0.0000000000
     24579       212  POPC      C217          -39.6527462932       14.8349104007       -2.2709748748  MEMB      212             0.0000000000
     24580       212  POPC      H17R          -40.2852738462       15.6281758532       -1.8182509677  MEMB      212             0.0000000000
     24581       212  POPC      H17S          -39.0098053473       15.4191770792       -2.9634928338  MEMB      212             0.0000000000
     24582       212  POPC      C218          -38.7958485542       14.1021119237       -1.2123217440  MEMB      212             0.0000000000
     24583       212  POPC      H18R          -38.2693946033       14.8479315853       -0.5791395137  MEMB      212             0.0000000000
     24584       212  POPC      H18S          -38.0337112214       13.4262370618       -1.6557879192  MEMB      212             0.0000000000
     24585       212  POPC      H18T          -39.4811572346       13.4423640697       -0.6383827163  MEMB      212             0.0000000000
     24586       212  POPC      C33           -39.8536358753       14.6800398137      -12.4762169389  MEMB      212             0.0000000000
     24587       212  POPC      H3X           -40.1665503687       13.6234278732      -12.6175579152  MEMB      212             0.0000000000
     24588       212  POPC      H3Y           -39.8995006188       14.9020785368      -11.3885972246  MEMB      212             0.0000000000
     24589       212  POPC      C34           -38.3552935786       14.7623099781      -12.8156622084  MEMB      212             0.0000000000
     24590       212  POPC      H4X           -38.1401107913       15.8479325144      -12.7184975861  MEMB      212             0.0000000000
     24591       212  POPC      H4Y           -38.3007045959       14.3182598392      -13.8325990391  MEMB      212             0.0000000000
     24592       212  POPC      C35           -37.3340211491       13.9950293502      -11.9990035642  MEMB      212             0.0000000000
     24593       212  POPC      H5X           -36.3360957090       13.7690199313      -12.4318840712  MEMB      212             0.0000000000
     24594       212  POPC      H5Y           -37.8147565364       13.0245804234      -11.7511257537  MEMB      212             0.0000000000
     24595       212  POPC      C36           -36.9265680938       14.6608480524      -10.6057504756  MEMB      212             0.0000000000
     24596       212  POPC      H6X           -36.8129286203       15.7628632196      -10.6892338736  MEMB      212             0.0000000000
     24597       212  POPC      H6Y           -35.9742375577       14.1766695168      -10.3008595248  MEMB      212             0.0000000000
     24598       212  POPC      C37           -38.0631626658       14.5985350512       -9.5663088147  MEMB      212             0.0000000000
     24599       212  POPC      H7X           -38.6256636496       13.6423519537       -9.5060805532  MEMB      212             0.0000000000
     24600       212  POPC      H7Y           -38.8357233712       15.3584132012       -9.8113724633  MEMB      212             0.0000000000
     24601       212  POPC      C38           -37.6289808699       15.0320584265       -8.0879818737  MEMB      212             0.0000000000
     24602       212  POPC      H8X           -38.5537400453       15.3920850775       -7.5884596731  MEMB      212             0.0000000000
     24603       212  POPC      H8Y           -36.9044870437       15.8424616496       -8.3174948652  MEMB      212             0.0000000000
     24604       212  POPC      C39           -36.9682966606       13.8527981683       -7.3026369762  MEMB      212             0.0000000000
     24605       212  POPC      H9X           -36.0103818535       13.5381473548       -7.7692364980  MEMB      212             0.0000000000
     24606       212  POPC      H9Y           -37.6950549361       13.0146621660       -7.3632306075  MEMB      212             0.0000000000
     24607       212  POPC      C310          -36.7242515021       14.2732062088       -5.8863966901  MEMB      212             0.0000000000
     24608       212  POPC      H10X          -36.2266553220       13.3878213290       -5.4360491464  MEMB      212             0.0000000000
     24609       212  POPC      H10Y          -37.7519054482       14.4949342063       -5.5271124563  MEMB      212             0.0000000000
     24610       212  POPC      C311          -35.9998578703       15.6173367510       -5.7047138630  MEMB      212             0.0000000000
     24611       212  POPC      H11X          -36.5891459930       16.3801760064       -6.2571053685  MEMB      212             0.0000000000
     24612       212  POPC      H11Y          -34.9560799277       15.5458460430       -6.0785292806  MEMB      212             0.0000000000
     24613       212  POPC      C312          -35.8514284308       15.9081753971       -4.1703408413  MEMB      212             0.0000000000
     24614       212  POPC      H12X          -34.9940762178       15.3946337199       -3.6850131807  MEMB      212             0.0000000000
     24615       212  POPC      H12Y          -36.7472310130       15.5165556952       -3.6426169727  MEMB      212             0.0000000000
     24616       212  POPC      C313          -35.7136745844       17.4054183359       -3.8529232299  MEMB      212             0.0000000000
     24617       212  POPC      H13X          -36.2459933800       17.8687142041       -4.7110110140  MEMB      212             0.0000000000
     24618       212  POPC      H13Y          -34.6389665941       17.6741870616       -3.7687372301  MEMB      212             0.0000000000
     24619       212  POPC      C314          -36.4186765090       17.8726438959       -2.5393683835  MEMB      212             0.0000000000
     24620       212  POPC      H14X          -35.9104956839       17.2515942929       -1.7710140304  MEMB      212             0.0000000000
     24621       212  POPC      H14Y          -37.4922688434       17.5879533492       -2.5134517329  MEMB      212             0.0000000000
     24622       212  POPC      C315          -36.1790690168       19.4086673878       -2.2415252025  MEMB      212             0.0000000000
     24623       212  POPC      H15X          -36.4677366985       19.9997766997       -3.1368374394  MEMB      212             0.0000000000
     24624       212  POPC      H15Y          -35.1472149763       19.6155794799       -1.8854553240  MEMB      212             0.0000000000
     24625       212  POPC      C316          -37.1300214622       19.8703032430       -1.1028587638  MEMB      212             0.0000000000
     24626       212  POPC      H16X          -38.0627609356       20.2788801825       -1.5471369986  MEMB      212             0.0000000000
     24627       212  POPC      H16Y          -36.7542680721       20.7013718527       -0.4684648128  MEMB      212             0.0000000000
     24628       212  POPC      H16Z          -37.3309723982       19.0428747540       -0.3892049234  MEMB      212             0.0000000000
     24629       213  POPC      N             -28.3333318316      -32.4105801337      -18.6454855295  MEMB      213             0.0000000000
     24630       213  POPC      C12           -27.8281194656      -31.7063215121      -19.9038915377  MEMB      213             0.0000000000
     24631       213  POPC      H12A          -28.5924973598      -30.9733754018      -20.1158263526  MEMB      213             0.0000000000
     24632       213  POPC      H12B          -27.6778300562      -32.3366516832      -20.7678920528  MEMB      213             0.0000000000
     24633       213  POPC      C13           -28.4804763064      -31.3454684196      -17.5449150072  MEMB      213             0.0000000000
     24634       213  POPC      H13A          -29.0644385379      -30.4780809889      -17.8151507513  MEMB      213             0.0000000000
     24635       213  POPC      H13B          -28.8565420186      -31.7136709022      -16.6018340380  MEMB      213             0.0000000000
     24636       213  POPC      H13C          -27.4999645410      -30.9638079551      -17.3013334146  MEMB      213             0.0000000000
     24637       213  POPC      C14           -29.6439672624      -33.0895079126      -18.9856303386  MEMB      213             0.0000000000
     24638       213  POPC      H14A          -30.4441644217      -32.3692155750      -19.0708563566  MEMB      213             0.0000000000
     24639       213  POPC      H14B          -29.5233790195      -33.6379231509      -19.9081806721  MEMB      213             0.0000000000
     24640       213  POPC      H14C          -29.9230652422      -33.8235979529      -18.2442693258  MEMB      213             0.0000000000
     24641       213  POPC      C15           -27.3377376500      -33.4907939162      -18.2015268723  MEMB      213             0.0000000000
     24642       213  POPC      H15A          -26.4626021722      -32.9077101665      -17.9554554754  MEMB      213             0.0000000000
     24643       213  POPC      H15B          -27.1583297791      -34.0373886427      -19.1155548180  MEMB      213             0.0000000000
     24644       213  POPC      H15C          -27.6673751259      -34.1684696208      -17.4279023478  MEMB      213             0.0000000000
     24645       213  POPC      C11           -26.5418738258      -30.9126344455      -19.6860421291  MEMB      213             0.0000000000
     24646       213  POPC      H11A          -26.7309702713      -30.0372101797      -19.0286259468  MEMB      213             0.0000000000
     24647       213  POPC      H11B          -26.2984151612      -30.4677428516      -20.6745360621  MEMB      213             0.0000000000
     24648       213  POPC      P             -23.9919909253      -31.1873721136      -19.2548094836  MEMB      213             0.0000000000
     24649       213  POPC      O13           -23.9439236248      -30.2003538851      -20.3433081926  MEMB      213             0.0000000000
     24650       213  POPC      O14           -22.9725841592      -32.2291861673      -19.2985790859  MEMB      213             0.0000000000
     24651       213  POPC      O12           -25.4361071432      -31.7705144536      -19.2130967633  MEMB      213             0.0000000000
     24652       213  POPC      O11           -23.8874984161      -30.3928949481      -17.9227150566  MEMB      213             0.0000000000
     24653       213  POPC      C1            -24.8687673204      -30.3438098187      -16.9167084097  MEMB      213             0.0000000000
     24654       213  POPC      HA            -25.5256689939      -31.2395638031      -16.9373463660  MEMB      213             0.0000000000
     24655       213  POPC      HB            -25.5898089697      -29.5231655033      -17.1191013049  MEMB      213             0.0000000000
     24656       213  POPC      C2            -24.4070905701      -30.2577709486      -15.4470385109  MEMB      213             0.0000000000
     24657       213  POPC      HS            -23.8682660645      -29.2947499279      -15.3182758109  MEMB      213             0.0000000000
     24658       213  POPC      O21           -23.5085441372      -31.3418557713      -15.3441488413  MEMB      213             0.0000000000
     24659       213  POPC      C21           -22.4762965572      -31.2420351224      -14.5307390624  MEMB      213             0.0000000000
     24660       213  POPC      O22           -22.1325693271      -30.2034350163      -14.0353385008  MEMB      213             0.0000000000
     24661       213  POPC      C22           -21.9047434530      -32.5985370504      -14.1377095457  MEMB      213             0.0000000000
     24662       213  POPC      H2R           -20.8394457746      -32.5698371064      -13.8236433679  MEMB      213             0.0000000000
     24663       213  POPC      H2S           -21.7671227309      -33.2491909377      -15.0276707075  MEMB      213             0.0000000000
     24664       213  POPC      C3            -25.5602458208      -30.4467380431      -14.3864616494  MEMB      213             0.0000000000
     24665       213  POPC      HX            -26.1152457431      -31.3765261991      -14.6350378241  MEMB      213             0.0000000000
     24666       213  POPC      HY            -26.3010621184      -29.6297889206      -14.5210218690  MEMB      213             0.0000000000
     24667       213  POPC      O31           -25.0101574650      -30.3030187800      -13.1021191578  MEMB      213             0.0000000000
     24668       213  POPC      C31           -24.6508948554      -29.1715797948      -12.5634249396  MEMB      213             0.0000000000
     24669       213  POPC      O32           -24.6852968389      -28.0568302999      -13.1193318681  MEMB      213             0.0000000000
     24670       213  POPC      C32           -23.9910513061      -29.4014440879      -11.1426894015  MEMB      213             0.0000000000
     24671       213  POPC      H2X           -22.9561810219      -29.0233864100      -11.2856473505  MEMB      213             0.0000000000
     24672       213  POPC      H2Y           -24.0196565443      -30.5082793167      -11.0509355375  MEMB      213             0.0000000000
     24673       213  POPC      C23           -22.7591553577      -33.2057540737      -13.0019783969  MEMB      213             0.0000000000
     24674       213  POPC      H3R           -22.7875229974      -32.4839588695      -12.1578645978  MEMB      213             0.0000000000
     24675       213  POPC      H3S           -22.2319001029      -34.1095042859      -12.6284032514  MEMB      213             0.0000000000
     24676       213  POPC      C24           -24.1607137198      -33.8365433938      -13.3363159153  MEMB      213             0.0000000000
     24677       213  POPC      H4R           -23.8996618846      -34.5301352852      -14.1640253448  MEMB      213             0.0000000000
     24678       213  POPC      H4S           -24.8026598329      -33.0101231517      -13.7094858225  MEMB      213             0.0000000000
     24679       213  POPC      C25           -24.5307715748      -34.6231977612      -12.0287192908  MEMB      213             0.0000000000
     24680       213  POPC      H5R           -23.7419697944      -35.2543778329      -11.5664158924  MEMB      213             0.0000000000
     24681       213  POPC      H5S           -25.2821033405      -35.3361830885      -12.4305570632  MEMB      213             0.0000000000
     24682       213  POPC      C26           -25.2093873389      -33.7899301543      -10.9530298907  MEMB      213             0.0000000000
     24683       213  POPC      H6R           -26.0674930738      -33.3786479440      -11.5264606633  MEMB      213             0.0000000000
     24684       213  POPC      H6S           -24.6166604905      -32.9403983930      -10.5514183132  MEMB      213             0.0000000000
     24685       213  POPC      C27           -25.7789169662      -34.5623561617       -9.7611965249  MEMB      213             0.0000000000
     24686       213  POPC      H7R           -26.4839199029      -35.2599357064      -10.2618708363  MEMB      213             0.0000000000
     24687       213  POPC      H7S           -26.3770696378      -33.8682581773       -9.1328954401  MEMB      213             0.0000000000
     24688       213  POPC      C28           -24.8525749160      -35.4623712816       -8.8594666494  MEMB      213             0.0000000000
     24689       213  POPC      H8R           -24.5663893714      -36.3665385782       -9.4381726568  MEMB      213             0.0000000000
     24690       213  POPC      H8S           -25.3862408368      -35.7489433766       -7.9281251583  MEMB      213             0.0000000000
     24691       213  POPC      C29           -23.6492731144      -34.9527081548       -8.1466579398  MEMB      213             0.0000000000
     24692       213  POPC      H91           -22.7593851260      -35.5978316093       -8.1028955667  MEMB      213             0.0000000000
     24693       213  POPC      C210          -23.6187121350      -33.8944345226       -7.3430429443  MEMB      213             0.0000000000
     24694       213  POPC      H101          -22.6106538706      -33.6032254777       -7.0128679959  MEMB      213             0.0000000000
     24695       213  POPC      C211          -24.7862455818      -32.9513633157       -6.9571703073  MEMB      213             0.0000000000
     24696       213  POPC      H11R          -25.8031343442      -33.3899036415       -7.0462803378  MEMB      213             0.0000000000
     24697       213  POPC      H11S          -24.7684591290      -31.9402158754       -7.4171546330  MEMB      213             0.0000000000
     24698       213  POPC      C212          -24.6912656136      -32.6509857077       -5.3753785481  MEMB      213             0.0000000000
     24699       213  POPC      H12R          -25.5344158474      -31.9692158266       -5.1332866470  MEMB      213             0.0000000000
     24700       213  POPC      H12S          -23.6882742348      -32.2103966082       -5.1904178841  MEMB      213             0.0000000000
     24701       213  POPC      C213          -24.6819679893      -33.9340451116       -4.4805862221  MEMB      213             0.0000000000
     24702       213  POPC      H13R          -23.8507820670      -34.5489620322       -4.8871916453  MEMB      213             0.0000000000
     24703       213  POPC      H13S          -25.6176411603      -34.5305016993       -4.5360509676  MEMB      213             0.0000000000
     24704       213  POPC      C214          -24.2383219795      -33.6164549099       -3.0445737707  MEMB      213             0.0000000000
     24705       213  POPC      H14R          -24.9239908757      -32.7775036990       -2.7989326526  MEMB      213             0.0000000000
     24706       213  POPC      H14S          -23.1817827556      -33.2749796763       -3.0066207885  MEMB      213             0.0000000000
     24707       213  POPC      C215          -24.5818059397      -34.7779756191       -2.1395380056  MEMB      213             0.0000000000
     24708       213  POPC      H15R          -24.0116940323      -35.7066086476       -2.3561802110  MEMB      213             0.0000000000
     24709       213  POPC      H15S          -25.6602537356      -34.9287611401       -2.3598440284  MEMB      213             0.0000000000
     24710       213  POPC      C216          -24.5324515011      -34.4345053728       -0.6122193486  MEMB      213             0.0000000000
     24711       213  POPC      H16R          -24.8424576508      -35.3114656555       -0.0046349441  MEMB      213             0.0000000000
     24712       213  POPC      H16S          -25.2072083617      -33.5950409536       -0.3395960258  MEMB      213             0.0000000000
     24713       213  POPC      C217          -23.1740301751      -34.0408671815       -0.0285708409  MEMB      213             0.0000000000
     24714       213  POPC      H17R          -23.2482745400      -34.1968997439        1.0689080345  MEMB      213             0.0000000000
     24715       213  POPC      H17S          -22.8791034693      -33.0063642502       -0.3063164039  MEMB      213             0.0000000000
     24716       213  POPC      C218          -21.8953088626      -34.9077955687       -0.3718456049  MEMB      213             0.0000000000
     24717       213  POPC      H18R          -21.0794886878      -34.6470421871        0.3358021936  MEMB      213             0.0000000000
     24718       213  POPC      H18S          -21.7419291697      -34.8250706244       -1.4690943687  MEMB      213             0.0000000000
     24719       213  POPC      H18T          -22.0774057091      -35.9542108585       -0.0459988235  MEMB      213             0.0000000000
     24720       213  POPC      C33           -24.7893069760      -28.7144081491      -10.0119515151  MEMB      213             0.0000000000
     24721       213  POPC      H3X           -25.7351808647      -29.2804835329       -9.8733799791  MEMB      213             0.0000000000
     24722       213  POPC      H3Y           -25.1310121087      -27.7091448266      -10.3390670441  MEMB      213             0.0000000000
     24723       213  POPC      C34           -23.9832080798      -28.4937072028       -8.7246519340  MEMB      213             0.0000000000
     24724       213  POPC      H4X           -23.2095806020      -27.7260380268       -8.9403035321  MEMB      213             0.0000000000
     24725       213  POPC      H4Y           -23.5203434243      -29.4286958740       -8.3427185880  MEMB      213             0.0000000000
     24726       213  POPC      C35           -24.8034889016      -28.0348090364       -7.4594924088  MEMB      213             0.0000000000
     24727       213  POPC      H5X           -25.6361499955      -28.7598335924       -7.3356549459  MEMB      213             0.0000000000
     24728       213  POPC      H5Y           -25.2403309448      -27.0135617708       -7.4828123358  MEMB      213             0.0000000000
     24729       213  POPC      C36           -24.0295537445      -28.0190984466       -6.1243499707  MEMB      213             0.0000000000
     24730       213  POPC      H6X           -23.0198140267      -27.5558152103       -6.1350736308  MEMB      213             0.0000000000
     24731       213  POPC      H6Y           -23.9427430035      -29.1026444627       -5.8947575082  MEMB      213             0.0000000000
     24732       213  POPC      C37           -24.8025167583      -27.2762539565       -4.9828100041  MEMB      213             0.0000000000
     24733       213  POPC      H7X           -25.8274595155      -27.7035603908       -4.9478466770  MEMB      213             0.0000000000
     24734       213  POPC      H7Y           -24.7964924946      -26.1715347026       -5.1006260299  MEMB      213             0.0000000000
     24735       213  POPC      C38           -24.1124018683      -27.4952631394       -3.5629788504  MEMB      213             0.0000000000
     24736       213  POPC      H8X           -23.0154367668      -27.4007781102       -3.7115085554  MEMB      213             0.0000000000
     24737       213  POPC      H8Y           -24.2172423604      -28.5655278308       -3.2839397501  MEMB      213             0.0000000000
     24738       213  POPC      C39           -24.6273035570      -26.5637210642       -2.4347224185  MEMB      213             0.0000000000
     24739       213  POPC      H9X           -25.1654528361      -25.6522747751       -2.7723341702  MEMB      213             0.0000000000
     24740       213  POPC      H9Y           -23.7045943819      -26.2074890385       -1.9287321480  MEMB      213             0.0000000000
     24741       213  POPC      C310          -25.7160097877      -27.1805034302       -1.5097021621  MEMB      213             0.0000000000
     24742       213  POPC      H10X          -25.9288926567      -26.6804203957       -0.5407246546  MEMB      213             0.0000000000
     24743       213  POPC      H10Y          -25.4133376648      -28.2288091631       -1.3005022357  MEMB      213             0.0000000000
     24744       213  POPC      C311          -27.1449629015      -27.2881907866       -2.2335431122  MEMB      213             0.0000000000
     24745       213  POPC      H11X          -26.9366577820      -27.8932211102       -3.1417655534  MEMB      213             0.0000000000
     24746       213  POPC      H11Y          -27.4422377933      -26.2528563868       -2.5056291859  MEMB      213             0.0000000000
     24747       213  POPC      C312          -28.3397162257      -27.7442555031       -1.4610544910  MEMB      213             0.0000000000
     24748       213  POPC      H12X          -29.2104367102      -27.5660771242       -2.1277010749  MEMB      213             0.0000000000
     24749       213  POPC      H12Y          -28.3471798703      -27.0801234795       -0.5704405430  MEMB      213             0.0000000000
     24750       213  POPC      C313          -28.2650106722      -29.1570385786       -0.9773037726  MEMB      213             0.0000000000
     24751       213  POPC      H13X          -29.1825965816      -29.3064310124       -0.3689963185  MEMB      213             0.0000000000
     24752       213  POPC      H13Y          -27.4059334752      -29.2238788520       -0.2759923416  MEMB      213             0.0000000000
     24753       213  POPC      C314          -28.3893426792      -30.2350956766       -2.0626004081  MEMB      213             0.0000000000
     24754       213  POPC      H14X          -27.7042743772      -30.0004024242       -2.9051683865  MEMB      213             0.0000000000
     24755       213  POPC      H14Y          -29.4468911696      -30.3058843580       -2.3956190211  MEMB      213             0.0000000000
     24756       213  POPC      C315          -27.8337943782      -31.5787909513       -1.6565290446  MEMB      213             0.0000000000
     24757       213  POPC      H15X          -28.1653686490      -31.9319432424       -0.6566986378  MEMB      213             0.0000000000
     24758       213  POPC      H15Y          -26.7240518667      -31.6076185017       -1.7008194438  MEMB      213             0.0000000000
     24759       213  POPC      C316          -28.4316853624      -32.5792097177       -2.6157294138  MEMB      213             0.0000000000
     24760       213  POPC      H16X          -29.5386295428      -32.5554400575       -2.5239126297  MEMB      213             0.0000000000
     24761       213  POPC      H16Y          -28.2661430330      -33.6347533495       -2.3111897077  MEMB      213             0.0000000000
     24762       213  POPC      H16Z          -28.0531936304      -32.4286294566       -3.6493584175  MEMB      213             0.0000000000
     24763       214  POPC      N             -44.8434139341        2.9853734280      -17.3299555071  MEMB      214             0.0000000000
     24764       214  POPC      C12           -44.4063665651        3.2495662069      -18.7724786862  MEMB      214             0.0000000000
     24765       214  POPC      H12A          -44.8575427679        2.4540639333      -19.3469490603  MEMB      214             0.0000000000
     24766       214  POPC      H12B          -43.3357527776        3.2629816792      -18.9139212000  MEMB      214             0.0000000000
     24767       214  POPC      C13           -46.3248269950        3.0170509847      -17.2706716463  MEMB      214             0.0000000000
     24768       214  POPC      H13A          -46.6926108551        2.7813669845      -16.2829530189  MEMB      214             0.0000000000
     24769       214  POPC      H13B          -46.5748753055        4.0442689674      -17.4913500687  MEMB      214             0.0000000000
     24770       214  POPC      H13C          -46.8050953205        2.3572967116      -17.9781082337  MEMB      214             0.0000000000
     24771       214  POPC      C14           -44.2608552764        1.6580424527      -16.7958160282  MEMB      214             0.0000000000
     24772       214  POPC      H14A          -44.5728204131        1.5608763893      -15.7664295482  MEMB      214             0.0000000000
     24773       214  POPC      H14B          -44.5330603742        0.8464436276      -17.4543079901  MEMB      214             0.0000000000
     24774       214  POPC      H14C          -43.1893484373        1.7552797586      -16.8897211102  MEMB      214             0.0000000000
     24775       214  POPC      C15           -44.2723588050        3.9219066138      -16.4129307461  MEMB      214             0.0000000000
     24776       214  POPC      H15A          -44.4174472333        3.6670256902      -15.3735148331  MEMB      214             0.0000000000
     24777       214  POPC      H15B          -44.6148384081        4.9341403252      -16.5694256299  MEMB      214             0.0000000000
     24778       214  POPC      H15C          -43.2017877579        3.9107985617      -16.5548956292  MEMB      214             0.0000000000
     24779       214  POPC      C11           -44.8747606873        4.6423302084      -19.5137594773  MEMB      214             0.0000000000
     24780       214  POPC      H11A          -44.3709292333        4.5575649875      -20.5003139493  MEMB      214             0.0000000000
     24781       214  POPC      H11B          -44.4003228988        5.5191362659      -19.0234117831  MEMB      214             0.0000000000
     24782       214  POPC      P             -47.1629015981        4.4741861922      -20.6223346759  MEMB      214             0.0000000000
     24783       214  POPC      O13           -47.5987862260        3.0706971847      -20.5070537393  MEMB      214             0.0000000000
     24784       214  POPC      O14           -46.4046699829        4.7850767657      -21.8695414541  MEMB      214             0.0000000000
     24785       214  POPC      O12           -46.2845425119        4.8390152944      -19.4537976973  MEMB      214             0.0000000000
     24786       214  POPC      O11           -48.3600473578        5.4222451739      -20.4516603019  MEMB      214             0.0000000000
     24787       214  POPC      C1            -49.5267936143        4.9816391737      -19.6980004982  MEMB      214             0.0000000000
     24788       214  POPC      HA            -49.2815506946        4.0430222517      -19.1565439231  MEMB      214             0.0000000000
     24789       214  POPC      HB            -50.4216189136        4.8255630910      -20.3377263370  MEMB      214             0.0000000000
     24790       214  POPC      C2            -49.9052670824        6.1747338106      -18.7299920378  MEMB      214             0.0000000000
     24791       214  POPC      HS            -50.3605798934        6.9697933340      -19.3583961616  MEMB      214             0.0000000000
     24792       214  POPC      O21           -48.8391861628        6.6073947064      -17.8421929745  MEMB      214             0.0000000000
     24793       214  POPC      C21           -48.3192925197        7.8127713059      -18.0633612093  MEMB      214             0.0000000000
     24794       214  POPC      O22           -48.7267094175        8.6274634285      -18.8764923801  MEMB      214             0.0000000000
     24795       214  POPC      C22           -47.1215800864        8.0677263403      -17.1934092123  MEMB      214             0.0000000000
     24796       214  POPC      H2R           -47.2738378660        8.9926690708      -16.5970710423  MEMB      214             0.0000000000
     24797       214  POPC      H2S           -46.2396025451        8.3188412593      -17.8206075251  MEMB      214             0.0000000000
     24798       214  POPC      C3            -51.0084599004        5.7204704807      -17.7718041749  MEMB      214             0.0000000000
     24799       214  POPC      HX            -51.7874718856        5.2357608111      -18.3983169361  MEMB      214             0.0000000000
     24800       214  POPC      HY            -51.4987995748        6.6477434117      -17.4056714525  MEMB      214             0.0000000000
     24801       214  POPC      O31           -50.4926662866        4.7922087441      -16.7348143080  MEMB      214             0.0000000000
     24802       214  POPC      C31           -50.9391970753        4.9716793744      -15.5241494516  MEMB      214             0.0000000000
     24803       214  POPC      O32           -51.4717445923        5.9963066511      -15.0937766504  MEMB      214             0.0000000000
     24804       214  POPC      C32           -50.6341990998        3.7014668289      -14.7082039744  MEMB      214             0.0000000000
     24805       214  POPC      H2X           -49.5400919530        3.5139351439      -14.7538351782  MEMB      214             0.0000000000
     24806       214  POPC      H2Y           -51.2154957587        2.8216436867      -15.0579563913  MEMB      214             0.0000000000
     24807       214  POPC      C23           -46.8093974057        6.8913180420      -16.2957743682  MEMB      214             0.0000000000
     24808       214  POPC      H3R           -45.7585884456        7.0314750105      -15.9633927006  MEMB      214             0.0000000000
     24809       214  POPC      H3S           -46.8357612221        5.8923102282      -16.7811705905  MEMB      214             0.0000000000
     24810       214  POPC      C24           -47.6320615702        6.7759194273      -14.9382178579  MEMB      214             0.0000000000
     24811       214  POPC      H4R           -48.7070121108        6.6363518732      -15.1817814649  MEMB      214             0.0000000000
     24812       214  POPC      H4S           -47.4561788420        7.7485753094      -14.4309445254  MEMB      214             0.0000000000
     24813       214  POPC      C25           -47.3475914790        5.6146495604      -13.9032007908  MEMB      214             0.0000000000
     24814       214  POPC      H5R           -47.3716082373        4.5560608084      -14.2395549303  MEMB      214             0.0000000000
     24815       214  POPC      H5S           -48.2015655331        5.7049771190      -13.1982965002  MEMB      214             0.0000000000
     24816       214  POPC      C26           -46.0669394222        5.7039342248      -13.1594242679  MEMB      214             0.0000000000
     24817       214  POPC      H6R           -45.9599570730        6.7323966668      -12.7530494178  MEMB      214             0.0000000000
     24818       214  POPC      H6S           -45.2427855990        5.4351683238      -13.8543029346  MEMB      214             0.0000000000
     24819       214  POPC      C27           -45.9552969516        4.6690907335      -12.0683921045  MEMB      214             0.0000000000
     24820       214  POPC      H7R           -46.0374387370        3.7116030676      -12.6258783537  MEMB      214             0.0000000000
     24821       214  POPC      H7S           -46.7405968691        4.7804255642      -11.2904271350  MEMB      214             0.0000000000
     24822       214  POPC      C28           -44.7100296839        4.5951795730      -11.1470212298  MEMB      214             0.0000000000
     24823       214  POPC      H8R           -44.7592539894        5.4417216445      -10.4292018351  MEMB      214             0.0000000000
     24824       214  POPC      H8S           -43.8421323096        4.5938777556      -11.8406155235  MEMB      214             0.0000000000
     24825       214  POPC      C29           -44.8401500725        3.2516825193      -10.4506006174  MEMB      214             0.0000000000
     24826       214  POPC      H91           -44.6806436084        2.4038435789      -11.1330419225  MEMB      214             0.0000000000
     24827       214  POPC      C210          -45.1178297625        2.9946886309       -9.1343412433  MEMB      214             0.0000000000
     24828       214  POPC      H101          -45.0755740318        1.9492961945       -8.7946803280  MEMB      214             0.0000000000
     24829       214  POPC      C211          -45.3693091910        4.0832902355       -8.0772161944  MEMB      214             0.0000000000
     24830       214  POPC      H11R          -45.8016268737        3.5557338922       -7.2002291146  MEMB      214             0.0000000000
     24831       214  POPC      H11S          -46.0613165657        4.8557415979       -8.4756709107  MEMB      214             0.0000000000
     24832       214  POPC      C212          -44.1095625368        4.7588520399       -7.6969912381  MEMB      214             0.0000000000
     24833       214  POPC      H12R          -43.7026522196        5.2956109914       -8.5805258780  MEMB      214             0.0000000000
     24834       214  POPC      H12S          -43.3623758000        4.0571824658       -7.2683969124  MEMB      214             0.0000000000
     24835       214  POPC      C213          -44.3034156006        5.8255158955       -6.6382983783  MEMB      214             0.0000000000
     24836       214  POPC      H13R          -45.2751089940        6.3218402714       -6.8475701386  MEMB      214             0.0000000000
     24837       214  POPC      H13S          -43.5744063271        6.6581686678       -6.7360534258  MEMB      214             0.0000000000
     24838       214  POPC      C214          -44.2250292839        5.1938516813       -5.2008863972  MEMB      214             0.0000000000
     24839       214  POPC      H14R          -43.2591250899        4.6596581078       -5.0744457651  MEMB      214             0.0000000000
     24840       214  POPC      H14S          -44.9796979474        4.3883878023       -5.0743000046  MEMB      214             0.0000000000
     24841       214  POPC      C215          -44.3938977339        6.2667485827       -4.0389694015  MEMB      214             0.0000000000
     24842       214  POPC      H15R          -45.4358157389        6.6478533446       -3.9799215417  MEMB      214             0.0000000000
     24843       214  POPC      H15S          -43.9374747360        7.1962868383       -4.4414093776  MEMB      214             0.0000000000
     24844       214  POPC      C216          -43.7446469566        5.8534232476       -2.7600222193  MEMB      214             0.0000000000
     24845       214  POPC      H16R          -42.6718814057        5.6008016904       -2.9002983457  MEMB      214             0.0000000000
     24846       214  POPC      H16S          -44.2478861679        4.9446357673       -2.3660975569  MEMB      214             0.0000000000
     24847       214  POPC      C217          -43.7551665825        7.0269416203       -1.6784343679  MEMB      214             0.0000000000
     24848       214  POPC      H17R          -43.4699519000        7.9641507760       -2.2024684131  MEMB      214             0.0000000000
     24849       214  POPC      H17S          -43.1108019170        6.7991827556       -0.8025105316  MEMB      214             0.0000000000
     24850       214  POPC      C218          -45.1692351596        7.3160095146       -1.1810398743  MEMB      214             0.0000000000
     24851       214  POPC      H18R          -45.8854213065        7.6892727000       -1.9439780567  MEMB      214             0.0000000000
     24852       214  POPC      H18S          -45.3297661109        7.9657575607       -0.2942598517  MEMB      214             0.0000000000
     24853       214  POPC      H18T          -45.5885015099        6.3865550667       -0.7398469000  MEMB      214             0.0000000000
     24854       214  POPC      C33           -50.9800312079        3.9384417005      -13.1933170241  MEMB      214             0.0000000000
     24855       214  POPC      H3X           -52.0758344304        3.8562930342      -13.0296459052  MEMB      214             0.0000000000
     24856       214  POPC      H3Y           -50.6147061209        4.9415736943      -12.8857705962  MEMB      214             0.0000000000
     24857       214  POPC      C34           -50.2985989412        2.8775333045      -12.4660466364  MEMB      214             0.0000000000
     24858       214  POPC      H4X           -49.2009873847        2.8511481511      -12.6359703486  MEMB      214             0.0000000000
     24859       214  POPC      H4Y           -50.7811542329        1.9129273116      -12.7324975591  MEMB      214             0.0000000000
     24860       214  POPC      C35           -50.2696801089        3.0920738826      -10.9567863178  MEMB      214             0.0000000000
     24861       214  POPC      H5X           -49.9510718641        2.1208027850      -10.5215367164  MEMB      214             0.0000000000
     24862       214  POPC      H5Y           -51.3020159765        3.3907488362      -10.6750124268  MEMB      214             0.0000000000
     24863       214  POPC      C36           -49.3535531803        4.2533513143      -10.4636645795  MEMB      214             0.0000000000
     24864       214  POPC      H6X           -49.2835615519        5.0936268900      -11.1871005651  MEMB      214             0.0000000000
     24865       214  POPC      H6Y           -48.3544145557        3.8692086322      -10.1662128771  MEMB      214             0.0000000000
     24866       214  POPC      C37           -49.9236347953        4.9976712511       -9.2696279725  MEMB      214             0.0000000000
     24867       214  POPC      H7X           -49.8098790179        4.3460982012       -8.3769721643  MEMB      214             0.0000000000
     24868       214  POPC      H7Y           -51.0131249685        5.0800547655       -9.4709849452  MEMB      214             0.0000000000
     24869       214  POPC      C38           -49.1621602254        6.2890898526       -8.9727697752  MEMB      214             0.0000000000
     24870       214  POPC      H8X           -49.3461404243        7.0720174888       -9.7392529101  MEMB      214             0.0000000000
     24871       214  POPC      H8Y           -48.0717862528        6.1601054622       -8.8031565163  MEMB      214             0.0000000000
     24872       214  POPC      C39           -49.5226388252        7.0096185739       -7.6618687918  MEMB      214             0.0000000000
     24873       214  POPC      H9X           -50.5867851032        7.2994155892       -7.5279617939  MEMB      214             0.0000000000
     24874       214  POPC      H9Y           -48.9583288636        7.9332517578       -7.9124226370  MEMB      214             0.0000000000
     24875       214  POPC      C310          -48.8327188675        6.5112662933       -6.3339905497  MEMB      214             0.0000000000
     24876       214  POPC      H10X          -48.9548431891        7.3576864825       -5.6247806203  MEMB      214             0.0000000000
     24877       214  POPC      H10Y          -47.7574416380        6.3013091603       -6.5184311518  MEMB      214             0.0000000000
     24878       214  POPC      C311          -49.4703953942        5.1598227738       -5.6262617449  MEMB      214             0.0000000000
     24879       214  POPC      H11X          -49.6266160166        4.3612703407       -6.3827215790  MEMB      214             0.0000000000
     24880       214  POPC      H11Y          -50.4782374716        5.3639690552       -5.2056679842  MEMB      214             0.0000000000
     24881       214  POPC      C312          -48.6027463324        4.6817664475       -4.4503826314  MEMB      214             0.0000000000
     24882       214  POPC      H12X          -48.6466255896        5.4845588408       -3.6836223484  MEMB      214             0.0000000000
     24883       214  POPC      H12Y          -47.5487523318        4.5149013303       -4.7595324932  MEMB      214             0.0000000000
     24884       214  POPC      C313          -49.0690267928        3.2420566343       -4.0025801215  MEMB      214             0.0000000000
     24885       214  POPC      H13X          -49.4372868345        2.6610307705       -4.8749991856  MEMB      214             0.0000000000
     24886       214  POPC      H13Y          -49.9748503225        3.3425329374       -3.3671992396  MEMB      214             0.0000000000
     24887       214  POPC      C314          -47.8766449118        2.4781079110       -3.3352134928  MEMB      214             0.0000000000
     24888       214  POPC      H14X          -46.9432773527        2.4896827182       -3.9377188391  MEMB      214             0.0000000000
     24889       214  POPC      H14Y          -48.2765182407        1.4416052094       -3.3260465371  MEMB      214             0.0000000000
     24890       214  POPC      C315          -47.5675900514        3.1150504646       -1.9980758751  MEMB      214             0.0000000000
     24891       214  POPC      H15X          -48.5561854405        3.1623522040       -1.4933356044  MEMB      214             0.0000000000
     24892       214  POPC      H15Y          -47.3622720598        4.2045064267       -2.0705407101  MEMB      214             0.0000000000
     24893       214  POPC      C316          -46.6073258905        2.3281981834       -1.1405950114  MEMB      214             0.0000000000
     24894       214  POPC      H16X          -45.6034555805        2.1629986477       -1.5869968630  MEMB      214             0.0000000000
     24895       214  POPC      H16Y          -47.0478504362        1.3222845648       -0.9720818432  MEMB      214             0.0000000000
     24896       214  POPC      H16Z          -46.5810124270        2.7859500397       -0.1286211547  MEMB      214             0.0000000000
     24897       215  POPC      N              27.3222287601       34.6571478215      -20.5976935296  MEMB      215             0.0000000000
     24898       215  POPC      C12            27.6441574506       33.1824612732      -20.4776483142  MEMB      215             0.0000000000
     24899       215  POPC      H12A           28.6533847805       33.1917841119      -20.0932353073  MEMB      215             0.0000000000
     24900       215  POPC      H12B           27.6046427123       32.7595283516      -21.4706066583  MEMB      215             0.0000000000
     24901       215  POPC      C13            26.1922542427       34.7841809750      -21.6338003025  MEMB      215             0.0000000000
     24902       215  POPC      H13A           25.8698255588       35.8143253198      -21.6690502786  MEMB      215             0.0000000000
     24903       215  POPC      H13B           26.5525575345       34.3766426229      -22.5668028167  MEMB      215             0.0000000000
     24904       215  POPC      H13C           25.4161758980       34.0811130004      -21.3696073712  MEMB      215             0.0000000000
     24905       215  POPC      C14            26.8948681269       35.2544958292      -19.2833305602  MEMB      215             0.0000000000
     24906       215  POPC      H14A           25.9425548627       34.8135467878      -19.0282552527  MEMB      215             0.0000000000
     24907       215  POPC      H14B           27.6627605599       34.9629082051      -18.5821045515  MEMB      215             0.0000000000
     24908       215  POPC      H14C           26.7856790130       36.3265392934      -19.3554475653  MEMB      215             0.0000000000
     24909       215  POPC      C15            28.4866069030       35.4221586794      -21.1607938968  MEMB      215             0.0000000000
     24910       215  POPC      H15A           28.9597110003       34.9228866750      -21.9934402732  MEMB      215             0.0000000000
     24911       215  POPC      H15B           29.2449623375       35.5012675185      -20.3959154207  MEMB      215             0.0000000000
     24912       215  POPC      H15C           28.2164854166       36.4391858667      -21.4038777429  MEMB      215             0.0000000000
     24913       215  POPC      C11            26.7219771996       32.2538722011      -19.6536130416  MEMB      215             0.0000000000
     24914       215  POPC      H11A           27.1713215610       31.2414175585      -19.7393230624  MEMB      215             0.0000000000
     24915       215  POPC      H11B           25.6936803346       32.1336445125      -20.0566909815  MEMB      215             0.0000000000
     24916       215  POPC      P              26.0226284062       31.5709937655      -17.2281067265  MEMB      215             0.0000000000
     24917       215  POPC      O13            27.1250549732       30.6871630552      -16.8050843847  MEMB      215             0.0000000000
     24918       215  POPC      O14            24.8668345523       30.9220893538      -17.9371323999  MEMB      215             0.0000000000
     24919       215  POPC      O12            26.6882293322       32.6058435103      -18.2270084652  MEMB      215             0.0000000000
     24920       215  POPC      O11            25.5107721421       32.4420741373      -15.9957883833  MEMB      215             0.0000000000
     24921       215  POPC      C1             24.9776472131       33.7493786685      -16.2795973134  MEMB      215             0.0000000000
     24922       215  POPC      HA             24.1716162538       33.6302294003      -17.0348712521  MEMB      215             0.0000000000
     24923       215  POPC      HB             25.7598182104       34.4352271847      -16.6696502244  MEMB      215             0.0000000000
     24924       215  POPC      C2             24.3432798778       34.2518125382      -14.9170535191  MEMB      215             0.0000000000
     24925       215  POPC      HS             24.0474658048       35.3013929261      -15.1296471662  MEMB      215             0.0000000000
     24926       215  POPC      O21            25.2698022796       34.2154609716      -13.7923055363  MEMB      215             0.0000000000
     24927       215  POPC      C21            25.0988219563       35.0823514323      -12.7543783890  MEMB      215             0.0000000000
     24928       215  POPC      O22            24.1147610719       35.8130683647      -12.6060995026  MEMB      215             0.0000000000
     24929       215  POPC      C22            26.3574234929       35.1364619562      -11.8748672753  MEMB      215             0.0000000000
     24930       215  POPC      H2R            27.2399457253       35.4529102815      -12.4709678023  MEMB      215             0.0000000000
     24931       215  POPC      H2S            26.5669633505       34.1142601550      -11.4933997304  MEMB      215             0.0000000000
     24932       215  POPC      C3             23.1096731248       33.3905952780      -14.4744599029  MEMB      215             0.0000000000
     24933       215  POPC      HX             22.6411651975       33.1045315535      -15.4403733129  MEMB      215             0.0000000000
     24934       215  POPC      HY             22.3156960395       33.9980620032      -13.9897891730  MEMB      215             0.0000000000
     24935       215  POPC      O31            23.5654535023       32.1135832677      -13.7965580647  MEMB      215             0.0000000000
     24936       215  POPC      C31            23.3236408770       30.9586326262      -14.4391129660  MEMB      215             0.0000000000
     24937       215  POPC      O32            22.8470747552       30.7954862497      -15.5752873268  MEMB      215             0.0000000000
     24938       215  POPC      C32            23.6286433502       29.8130720406      -13.6086250416  MEMB      215             0.0000000000
     24939       215  POPC      H2X            23.4155585121       28.8449899933      -14.1103556210  MEMB      215             0.0000000000
     24940       215  POPC      H2Y            23.0002071471       29.7747311122      -12.6932460301  MEMB      215             0.0000000000
     24941       215  POPC      C23            26.0761690563       35.9815165461      -10.6154186150  MEMB      215             0.0000000000
     24942       215  POPC      H3R            25.3223004021       35.5636678148       -9.9144151153  MEMB      215             0.0000000000
     24943       215  POPC      H3S            25.7117816469       36.9688338179      -10.9714349492  MEMB      215             0.0000000000
     24944       215  POPC      C24            27.3695433257       36.1027266594       -9.7872554190  MEMB      215             0.0000000000
     24945       215  POPC      H4R            27.1981484540       36.8953049309       -9.0278053083  MEMB      215             0.0000000000
     24946       215  POPC      H4S            28.1416831034       36.4167243611      -10.5217805480  MEMB      215             0.0000000000
     24947       215  POPC      C25            27.8336205521       34.7869633837       -9.0738687678  MEMB      215             0.0000000000
     24948       215  POPC      H5R            28.9146156296       34.5855677587       -9.2326453108  MEMB      215             0.0000000000
     24949       215  POPC      H5S            27.1900203043       33.9177404872       -9.3279380094  MEMB      215             0.0000000000
     24950       215  POPC      C26            27.6558378676       34.9776946813       -7.5397989406  MEMB      215             0.0000000000
     24951       215  POPC      H6R            26.5537513123       35.0383826262       -7.4131376492  MEMB      215             0.0000000000
     24952       215  POPC      H6S            28.0013441763       35.9972975538       -7.2652871416  MEMB      215             0.0000000000
     24953       215  POPC      C27            28.2247189358       33.8714738091       -6.6473782063  MEMB      215             0.0000000000
     24954       215  POPC      H7R            29.3346049026       33.8267345086       -6.6691091941  MEMB      215             0.0000000000
     24955       215  POPC      H7S            27.8644742109       32.8814943346       -7.0002032714  MEMB      215             0.0000000000
     24956       215  POPC      C28            27.7891870138       33.9570742996       -5.1502215624  MEMB      215             0.0000000000
     24957       215  POPC      H8R            28.0086031456       32.9895321466       -4.6501818878  MEMB      215             0.0000000000
     24958       215  POPC      H8S            26.6834235829       34.0629665459       -5.1303447837  MEMB      215             0.0000000000
     24959       215  POPC      C29            28.5698967015       35.0624136586       -4.5386916163  MEMB      215             0.0000000000
     24960       215  POPC      H91            29.5806092194       34.6834371544       -4.3269441515  MEMB      215             0.0000000000
     24961       215  POPC      C210           28.1015737632       36.1886061562       -3.9538766377  MEMB      215             0.0000000000
     24962       215  POPC      H101           28.7466944948       36.8936873678       -3.4091929702  MEMB      215             0.0000000000
     24963       215  POPC      C211           26.6407579913       36.5278713622       -3.8837897488  MEMB      215             0.0000000000
     24964       215  POPC      H11R           25.9762966492       35.6375494295       -3.8955754986  MEMB      215             0.0000000000
     24965       215  POPC      H11S           26.2677747550       36.9677063704       -4.8333948557  MEMB      215             0.0000000000
     24966       215  POPC      C212           26.1319800601       37.4974087368       -2.8852215706  MEMB      215             0.0000000000
     24967       215  POPC      H12R           26.2739934625       36.8965406967       -1.9615819193  MEMB      215             0.0000000000
     24968       215  POPC      H12S           25.0236004528       37.5690351765       -2.8590409099  MEMB      215             0.0000000000
     24969       215  POPC      C213           26.8226504410       38.8713040483       -2.7981024245  MEMB      215             0.0000000000
     24970       215  POPC      H13R           26.6809042731       39.4272727231       -3.7494850174  MEMB      215             0.0000000000
     24971       215  POPC      H13S           27.9193710470       38.6992880278       -2.7541094710  MEMB      215             0.0000000000
     24972       215  POPC      C214           26.1564140568       39.6971025590       -1.7136157895  MEMB      215             0.0000000000
     24973       215  POPC      H14R           25.1783639098       40.0602173116       -2.0955672278  MEMB      215             0.0000000000
     24974       215  POPC      H14S           26.8478497078       40.5555647968       -1.5747619153  MEMB      215             0.0000000000
     24975       215  POPC      C215           25.9231940133       38.9313345953       -0.3570696331  MEMB      215             0.0000000000
     24976       215  POPC      H15R           25.2159751930       38.1165356643       -0.6221474377  MEMB      215             0.0000000000
     24977       215  POPC      H15S           25.3344444857       39.5885466283        0.3180350877  MEMB      215             0.0000000000
     24978       215  POPC      C216           27.1690350912       38.6644852292        0.4937557803  MEMB      215             0.0000000000
     24979       215  POPC      H16R           27.9027814675       39.4968098129        0.4374278112  MEMB      215             0.0000000000
     24980       215  POPC      H16S           27.6207508985       37.7535682209        0.0459801486  MEMB      215             0.0000000000
     24981       215  POPC      C217           26.9282685365       38.4163560210        1.9893872777  MEMB      215             0.0000000000
     24982       215  POPC      H17R           27.1140090750       39.3402466849        2.5778153222  MEMB      215             0.0000000000
     24983       215  POPC      H17S           27.7297040119       37.6939690748        2.2543009717  MEMB      215             0.0000000000
     24984       215  POPC      C218           25.6013077001       37.8039840087        2.3556208865  MEMB      215             0.0000000000
     24985       215  POPC      H18R           25.6469434863       37.2415032649        3.3126230533  MEMB      215             0.0000000000
     24986       215  POPC      H18S           25.3136822649       37.0120651181        1.6314251416  MEMB      215             0.0000000000
     24987       215  POPC      H18T           24.7688136396       38.5212480475        2.5193479547  MEMB      215             0.0000000000
     24988       215  POPC      C33            25.2157525326       29.7260535864      -13.3984670469  MEMB      215             0.0000000000
     24989       215  POPC      H3X            25.7967876501       29.9358695435      -14.3218824221  MEMB      215             0.0000000000
     24990       215  POPC      H3Y            25.3540458345       28.6707535029      -13.0798179495  MEMB      215             0.0000000000
     24991       215  POPC      C34            25.7568133073       30.5460568043      -12.2472455290  MEMB      215             0.0000000000
     24992       215  POPC      H4X            25.6955977979       31.6261498596      -12.5001739493  MEMB      215             0.0000000000
     24993       215  POPC      H4Y            26.8249343553       30.3124981213      -12.0500433811  MEMB      215             0.0000000000
     24994       215  POPC      C35            24.8946462251       30.5140806692      -10.9598689780  MEMB      215             0.0000000000
     24995       215  POPC      H5X            24.7253407150       29.4677052951      -10.6270702387  MEMB      215             0.0000000000
     24996       215  POPC      H5Y            23.8952857755       30.9000500995      -11.2541941658  MEMB      215             0.0000000000
     24997       215  POPC      C36            25.4935397679       31.1758743534       -9.7060761411  MEMB      215             0.0000000000
     24998       215  POPC      H6X            25.4742316179       32.2687318251       -9.9051003600  MEMB      215             0.0000000000
     24999       215  POPC      H6Y            26.5364884614       30.8314855497       -9.5388177218  MEMB      215             0.0000000000
     25000       215  POPC      C37            24.6563707147       30.9346358174       -8.4853814350  MEMB      215             0.0000000000
     25001       215  POPC      H7X            24.6812526236       29.8244819339       -8.5208785506  MEMB      215             0.0000000000
     25002       215  POPC      H7Y            23.5834768197       31.1577485800       -8.6682479657  MEMB      215             0.0000000000
     25003       215  POPC      C38            25.1393223721       31.5257555549       -7.0905713284  MEMB      215             0.0000000000
     25004       215  POPC      H8X            24.8666863855       32.6000958649       -7.0145248853  MEMB      215             0.0000000000
     25005       215  POPC      H8Y            26.2485801404       31.4701029101       -7.0628054553  MEMB      215             0.0000000000
     25006       215  POPC      C39            24.5580815371       30.7562175907       -5.8539560272  MEMB      215             0.0000000000
     25007       215  POPC      H9X            24.7964928718       29.6767235727       -5.9642899359  MEMB      215             0.0000000000
     25008       215  POPC      H9Y            23.4677192790       30.9692481082       -5.8609746790  MEMB      215             0.0000000000
     25009       215  POPC      C310           25.0897229668       31.2514007451       -4.5962458915  MEMB      215             0.0000000000
     25010       215  POPC      H10X           24.9605517832       32.3497382756       -4.7025020555  MEMB      215             0.0000000000
     25011       215  POPC      H10Y           26.1950958811       31.2020921847       -4.4960443406  MEMB      215             0.0000000000
     25012       215  POPC      C311           24.4229906078       30.7496637886       -3.2796428682  MEMB      215             0.0000000000
     25013       215  POPC      H11X           24.8924967863       29.7932074766       -2.9648793497  MEMB      215             0.0000000000
     25014       215  POPC      H11Y           23.3319777536       30.5825610064       -3.4064835677  MEMB      215             0.0000000000
     25015       215  POPC      C312           24.3000619298       31.7903056360       -2.0993009174  MEMB      215             0.0000000000
     25016       215  POPC      H12X           23.6340399440       31.4060184116       -1.2973922598  MEMB      215             0.0000000000
     25017       215  POPC      H12Y           23.8170106750       32.7410646559       -2.4108130536  MEMB      215             0.0000000000
     25018       215  POPC      C313           25.6358007439       32.0026352742       -1.3331292797  MEMB      215             0.0000000000
     25019       215  POPC      H13X           26.3856189740       32.6842914777       -1.7885830056  MEMB      215             0.0000000000
     25020       215  POPC      H13Y           26.1191940802       31.0059359735       -1.2480292533  MEMB      215             0.0000000000
     25021       215  POPC      C314           25.3508151584       32.5555270383        0.0682918923  MEMB      215             0.0000000000
     25022       215  POPC      H14X           24.7128030899       31.8469870688        0.6385824154  MEMB      215             0.0000000000
     25023       215  POPC      H14Y           24.8721470186       33.5564823940        0.0109679299  MEMB      215             0.0000000000
     25024       215  POPC      C315           26.6421057956       32.8463684318        0.9376027930  MEMB      215             0.0000000000
     25025       215  POPC      H15X           26.9866776256       31.7913680363        0.9882530419  MEMB      215             0.0000000000
     25026       215  POPC      H15Y           26.1609287750       33.2017189054        1.8738264822  MEMB      215             0.0000000000
     25027       215  POPC      C316           27.6290322388       33.9371370391        0.6646208365  MEMB      215             0.0000000000
     25028       215  POPC      H16X           28.4371500862       33.7976951354       -0.0849281331  MEMB      215             0.0000000000
     25029       215  POPC      H16Y           28.0782821444       34.4618958593        1.5347497502  MEMB      215             0.0000000000
     25030       215  POPC      H16Z           26.9533276258       34.7111373933        0.2419294729  MEMB      215             0.0000000000
     25031       216  POPC      N              25.6067810101      -36.0071723051      -17.9037250063  MEMB      216             0.0000000000
     25032       216  POPC      C12            26.2692933969      -35.4479847690      -19.1905059634  MEMB      216             0.0000000000
     25033       216  POPC      H12A           26.8681587712      -36.2835527950      -19.5215445334  MEMB      216             0.0000000000
     25034       216  POPC      H12B           27.0436758469      -34.7831810205      -18.8372812173  MEMB      216             0.0000000000
     25035       216  POPC      C13            25.2515658813      -34.9159509534      -17.0333841875  MEMB      216             0.0000000000
     25036       216  POPC      H13A           26.0981816562      -34.2478171332      -17.0902959980  MEMB      216             0.0000000000
     25037       216  POPC      H13B           24.3385640655      -34.4552740322      -17.3806657441  MEMB      216             0.0000000000
     25038       216  POPC      H13C           25.1272326148      -35.2279390807      -16.0069318007  MEMB      216             0.0000000000
     25039       216  POPC      C14            24.3351098851      -36.7661737892      -18.3282726562  MEMB      216             0.0000000000
     25040       216  POPC      H14A           23.8445793217      -37.0891470080      -17.4219238999  MEMB      216             0.0000000000
     25041       216  POPC      H14B           23.5957305898      -36.1463605559      -18.8136073052  MEMB      216             0.0000000000
     25042       216  POPC      H14C           24.6249775743      -37.6485193067      -18.8794925704  MEMB      216             0.0000000000
     25043       216  POPC      C15            26.4390048612      -37.0079198272      -17.1533400910  MEMB      216             0.0000000000
     25044       216  POPC      H15A           27.3668074245      -36.4888169980      -16.9633016737  MEMB      216             0.0000000000
     25045       216  POPC      H15B           26.6844509856      -37.8652837076      -17.7625063595  MEMB      216             0.0000000000
     25046       216  POPC      H15C           25.9441347443      -37.3204778459      -16.2456996622  MEMB      216             0.0000000000
     25047       216  POPC      C11            25.5144312881      -34.7544933860      -20.3843591296  MEMB      216             0.0000000000
     25048       216  POPC      H11A           24.9074846126      -35.4743794892      -20.9740205673  MEMB      216             0.0000000000
     25049       216  POPC      H11B           26.2441132383      -34.3955304278      -21.1413470889  MEMB      216             0.0000000000
     25050       216  POPC      P              25.0201613082      -32.3374305375      -19.7875536834  MEMB      216             0.0000000000
     25051       216  POPC      O13            24.4696848544      -31.7141728483      -18.5625840884  MEMB      216             0.0000000000
     25052       216  POPC      O14            24.7785378674      -31.6397488682      -21.0164855731  MEMB      216             0.0000000000
     25053       216  POPC      O12            24.5443736625      -33.8018336059      -19.9581828221  MEMB      216             0.0000000000
     25054       216  POPC      O11            26.5965527255      -32.3612796095      -19.6816068477  MEMB      216             0.0000000000
     25055       216  POPC      C1             27.3302933171      -31.2042266178      -19.3693069077  MEMB      216             0.0000000000
     25056       216  POPC      HA             26.8121161210      -30.2416811711      -19.5675980246  MEMB      216             0.0000000000
     25057       216  POPC      HB             28.2618895519      -31.2008595325      -19.9746483490  MEMB      216             0.0000000000
     25058       216  POPC      C2             27.9001305709      -31.3618181929      -17.8748983222  MEMB      216             0.0000000000
     25059       216  POPC      HS             28.6126012309      -30.5178871005      -17.7545369721  MEMB      216             0.0000000000
     25060       216  POPC      O21            28.6829291733      -32.6532651668      -17.7940155277  MEMB      216             0.0000000000
     25061       216  POPC      C21            29.7184436188      -32.6547465527      -17.0488689133  MEMB      216             0.0000000000
     25062       216  POPC      O22            30.2039432866      -31.7252350614      -16.3789399120  MEMB      216             0.0000000000
     25063       216  POPC      C22            30.2588186024      -34.0305267129      -16.9519172915  MEMB      216             0.0000000000
     25064       216  POPC      H2R            31.2177706363      -34.0530006851      -17.5124775679  MEMB      216             0.0000000000
     25065       216  POPC      H2S            29.5755205303      -34.8533241906      -17.2526308604  MEMB      216             0.0000000000
     25066       216  POPC      C3             26.9737690819      -31.3622436527      -16.6388286371  MEMB      216             0.0000000000
     25067       216  POPC      HX             26.3289168551      -32.2667947747      -16.6553743558  MEMB      216             0.0000000000
     25068       216  POPC      HY             26.3348042640      -30.4839773788      -16.8726945519  MEMB      216             0.0000000000
     25069       216  POPC      O31            27.7742578923      -31.2165720552      -15.4718882170  MEMB      216             0.0000000000
     25070       216  POPC      C31            27.0846386495      -31.2809384050      -14.3117928473  MEMB      216             0.0000000000
     25071       216  POPC      O32            25.8872366600      -31.4485978025      -14.1842381127  MEMB      216             0.0000000000
     25072       216  POPC      C32            28.0823655581      -31.1030864213      -13.1433412541  MEMB      216             0.0000000000
     25073       216  POPC      H2X            28.6411858809      -30.1454326026      -13.2136275456  MEMB      216             0.0000000000
     25074       216  POPC      H2Y            28.7507002493      -31.9904159784      -13.1605439900  MEMB      216             0.0000000000
     25075       216  POPC      C23            30.6180647674      -34.2992452991      -15.5078496970  MEMB      216             0.0000000000
     25076       216  POPC      H3R            31.2001318660      -33.4086762021      -15.1878414900  MEMB      216             0.0000000000
     25077       216  POPC      H3S            31.1286628004      -35.2857503919      -15.5283040123  MEMB      216             0.0000000000
     25078       216  POPC      C24            29.5000082676      -34.3296047709      -14.4382489244  MEMB      216             0.0000000000
     25079       216  POPC      H4R            28.9310092243      -33.3775955898      -14.3731372373  MEMB      216             0.0000000000
     25080       216  POPC      H4S            29.9186810975      -34.4862991522      -13.4211544598  MEMB      216             0.0000000000
     25081       216  POPC      C25            28.5984483833      -35.5483592542      -14.4242504447  MEMB      216             0.0000000000
     25082       216  POPC      H5R            28.9935536439      -36.5112154898      -14.0355076210  MEMB      216             0.0000000000
     25083       216  POPC      H5S            28.2926901019      -35.7594436990      -15.4712824454  MEMB      216             0.0000000000
     25084       216  POPC      C26            27.4083719084      -35.2628694570      -13.4962818137  MEMB      216             0.0000000000
     25085       216  POPC      H6R            26.5679286736      -35.9763124382      -13.6340315806  MEMB      216             0.0000000000
     25086       216  POPC      H6S            26.9876965666      -34.2452169423      -13.6437157990  MEMB      216             0.0000000000
     25087       216  POPC      C27            27.7984663477      -35.4023883241      -12.0088204171  MEMB      216             0.0000000000
     25088       216  POPC      H7R            28.3280944734      -34.4732191096      -11.7080551431  MEMB      216             0.0000000000
     25089       216  POPC      H7S            28.5608110853      -36.1760144817      -11.7750387723  MEMB      216             0.0000000000
     25090       216  POPC      C28            26.6300991277      -35.7859953142      -11.0906017658  MEMB      216             0.0000000000
     25091       216  POPC      H8R            27.0150402101      -35.7982230886      -10.0484928674  MEMB      216             0.0000000000
     25092       216  POPC      H8S            26.4157271501      -36.8223918746      -11.4286079759  MEMB      216             0.0000000000
     25093       216  POPC      C29            25.3681008059      -34.9626913032      -11.1071200967  MEMB      216             0.0000000000
     25094       216  POPC      H91            25.0799737181      -34.4755675189      -12.0503556276  MEMB      216             0.0000000000
     25095       216  POPC      C210           24.5230498078      -34.7356100670      -10.0904396268  MEMB      216             0.0000000000
     25096       216  POPC      H101           23.6959765690      -34.0242165711      -10.2313979019  MEMB      216             0.0000000000
     25097       216  POPC      C211           24.6728897042      -35.3137189550       -8.7124773779  MEMB      216             0.0000000000
     25098       216  POPC      H11R           25.7129521385      -35.2538982020       -8.3264563203  MEMB      216             0.0000000000
     25099       216  POPC      H11S           24.4615864966      -36.4044107966       -8.7204500735  MEMB      216             0.0000000000
     25100       216  POPC      C212           23.6588918751      -34.6566497102       -7.6377506381  MEMB      216             0.0000000000
     25101       216  POPC      H12R           22.5998859305      -34.8469972042       -7.9145088908  MEMB      216             0.0000000000
     25102       216  POPC      H12S           23.8543004257      -33.5631484472       -7.6179649239  MEMB      216             0.0000000000
     25103       216  POPC      C213           23.9506701760      -35.2068695601       -6.2254282790  MEMB      216             0.0000000000
     25104       216  POPC      H13R           25.0078666959      -35.0733481092       -5.9110570646  MEMB      216             0.0000000000
     25105       216  POPC      H13S           23.5647822403      -36.2457425201       -6.1469763483  MEMB      216             0.0000000000
     25106       216  POPC      C214           23.0667573721      -34.4952222616       -5.2565009060  MEMB      216             0.0000000000
     25107       216  POPC      H14R           22.0083481809      -34.4745815666       -5.5936430880  MEMB      216             0.0000000000
     25108       216  POPC      H14S           23.3610392808      -33.4277148649       -5.1662414115  MEMB      216             0.0000000000
     25109       216  POPC      C215           23.2105793293      -35.0009668491       -3.8386729019  MEMB      216             0.0000000000
     25110       216  POPC      H15R           24.2346824174      -35.3849070989       -3.6434182656  MEMB      216             0.0000000000
     25111       216  POPC      H15S           22.4370242694      -35.7619695162       -3.6003290125  MEMB      216             0.0000000000
     25112       216  POPC      C216           22.9531490488      -33.8581928646       -2.7759604315  MEMB      216             0.0000000000
     25113       216  POPC      H16R           21.9303371027      -33.4358415738       -2.8749366577  MEMB      216             0.0000000000
     25114       216  POPC      H16S           23.8030462393      -33.1491689787       -2.8722983148  MEMB      216             0.0000000000
     25115       216  POPC      C217           22.9303817773      -34.3589589517       -1.3413644149  MEMB      216             0.0000000000
     25116       216  POPC      H17R           24.0028324456      -34.4463789221       -1.0647274023  MEMB      216             0.0000000000
     25117       216  POPC      H17S           22.5758066258      -35.4005900405       -1.1877329052  MEMB      216             0.0000000000
     25118       216  POPC      C218           22.1372801114      -33.4634755991       -0.2918151259  MEMB      216             0.0000000000
     25119       216  POPC      H18R           22.4996025745      -32.4133356646       -0.2760247253  MEMB      216             0.0000000000
     25120       216  POPC      H18S           22.4094610029      -33.8888649450        0.6977725858  MEMB      216             0.0000000000
     25121       216  POPC      H18T           21.0415748812      -33.3953562459       -0.4624355920  MEMB      216             0.0000000000
     25122       216  POPC      C33            27.2681892511      -31.0844970194      -11.7981177601  MEMB      216             0.0000000000
     25123       216  POPC      H3X            26.7684413373      -32.0739857971      -11.7240568607  MEMB      216             0.0000000000
     25124       216  POPC      H3Y            26.4593032978      -30.3231885525      -11.8189564485  MEMB      216             0.0000000000
     25125       216  POPC      C34            28.1719528910      -30.8659890856      -10.6568278998  MEMB      216             0.0000000000
     25126       216  POPC      H4X            28.8022583051      -29.9609361557      -10.7906767308  MEMB      216             0.0000000000
     25127       216  POPC      H4Y            28.9829795500      -31.6221846586      -10.5880914618  MEMB      216             0.0000000000
     25128       216  POPC      C35            27.5045667972      -30.8394844826       -9.2540543451  MEMB      216             0.0000000000
     25129       216  POPC      H5X            26.4219428939      -30.6136235468       -9.3600408044  MEMB      216             0.0000000000
     25130       216  POPC      H5Y            27.9548799015      -30.0519395127       -8.6127182415  MEMB      216             0.0000000000
     25131       216  POPC      C36            27.5908392565      -32.1127065765       -8.4712167903  MEMB      216             0.0000000000
     25132       216  POPC      H6X            28.6505473444      -32.3213563967       -8.2108236579  MEMB      216             0.0000000000
     25133       216  POPC      H6Y            27.1606115644      -32.9136093899       -9.1097939443  MEMB      216             0.0000000000
     25134       216  POPC      C37            26.9157228195      -31.9402192763       -7.1211700770  MEMB      216             0.0000000000
     25135       216  POPC      H7X            25.8137140092      -31.8350834603       -7.2152123806  MEMB      216             0.0000000000
     25136       216  POPC      H7Y            27.2660668705      -30.9941032586       -6.6559342436  MEMB      216             0.0000000000
     25137       216  POPC      C38            27.2634848319      -33.1606793233       -6.1711867107  MEMB      216             0.0000000000
     25138       216  POPC      H8X            28.2999517957      -33.4832677946       -6.4078174232  MEMB      216             0.0000000000
     25139       216  POPC      H8Y            26.6388619680      -34.0053619821       -6.5326818545  MEMB      216             0.0000000000
     25140       216  POPC      C39            26.9398301762      -32.9475057843       -4.6618739295  MEMB      216             0.0000000000
     25141       216  POPC      H9X            25.8750167096      -33.1353094098       -4.4064855466  MEMB      216             0.0000000000
     25142       216  POPC      H9Y            27.1515495186      -31.8982027504       -4.3644528599  MEMB      216             0.0000000000
     25143       216  POPC      C310           27.8296785345      -33.8543637260       -3.7335526529  MEMB      216             0.0000000000
     25144       216  POPC      H10X           28.8963420508      -33.5450343466       -3.7629659108  MEMB      216             0.0000000000
     25145       216  POPC      H10Y           27.8138765130      -34.8373513474       -4.2510533367  MEMB      216             0.0000000000
     25146       216  POPC      C311           27.2812255991      -34.0695385612       -2.2372968171  MEMB      216             0.0000000000
     25147       216  POPC      H11X           27.5126207638      -35.1380682152       -2.0397574337  MEMB      216             0.0000000000
     25148       216  POPC      H11Y           26.1882600104      -33.8719891609       -2.2641601234  MEMB      216             0.0000000000
     25149       216  POPC      C312           27.9109191885      -33.0600926974       -1.1901721208  MEMB      216             0.0000000000
     25150       216  POPC      H12X           27.3418878748      -33.1639837588       -0.2416297135  MEMB      216             0.0000000000
     25151       216  POPC      H12Y           27.8438537960      -31.9997432674       -1.5149522102  MEMB      216             0.0000000000
     25152       216  POPC      C313           29.4192888422      -33.1839232385       -0.8858972117  MEMB      216             0.0000000000
     25153       216  POPC      H13X           29.7393836572      -32.2989617779       -0.2953839068  MEMB      216             0.0000000000
     25154       216  POPC      H13Y           29.9489993922      -33.0256409400       -1.8495733210  MEMB      216             0.0000000000
     25155       216  POPC      C314           29.8876976397      -34.4872560834       -0.2097045184  MEMB      216             0.0000000000
     25156       216  POPC      H14X           29.6411858504      -35.2538429802       -0.9751441507  MEMB      216             0.0000000000
     25157       216  POPC      H14Y           29.3622537614      -34.6503420857        0.7555059117  MEMB      216             0.0000000000
     25158       216  POPC      C315           31.3502093578      -34.5033262619        0.3281674655  MEMB      216             0.0000000000
     25159       216  POPC      H15X           31.9419409328      -34.0604663364       -0.5013197998  MEMB      216             0.0000000000
     25160       216  POPC      H15Y           31.5673707543      -35.5840568604        0.4666712143  MEMB      216             0.0000000000
     25161       216  POPC      C316           31.5015912319      -33.7987955554        1.6456688348  MEMB      216             0.0000000000
     25162       216  POPC      H16X           30.9166851110      -34.2928196803        2.4507435419  MEMB      216             0.0000000000
     25163       216  POPC      H16Y           30.8869290520      -32.8827385660        1.5139454734  MEMB      216             0.0000000000
     25164       216  POPC      H16Z           32.5560972718      -33.5792048817        1.9179149070  MEMB      216             0.0000000000
     25165       217  POPC      N             -30.6648484443       29.1347786717      -17.0323061189  MEMB      217             0.0000000000
     25166       217  POPC      C12           -29.9104618773       29.9444113324      -18.0213832660  MEMB      217             0.0000000000
     25167       217  POPC      H12A          -29.2801346025       29.2282835777      -18.5275933340  MEMB      217             0.0000000000
     25168       217  POPC      H12B          -29.2917918328       30.6734123013      -17.5191832877  MEMB      217             0.0000000000
     25169       217  POPC      C13           -31.2003073399       27.8850447516      -17.5564173372  MEMB      217             0.0000000000
     25170       217  POPC      H13A          -31.8259923287       27.3570168166      -16.8520703500  MEMB      217             0.0000000000
     25171       217  POPC      H13B          -31.7349822132       28.0440349865      -18.4812118213  MEMB      217             0.0000000000
     25172       217  POPC      H13C          -30.3100996645       27.2863949807      -17.6811114535  MEMB      217             0.0000000000
     25173       217  POPC      C14           -29.8601789816       28.9535624422      -15.8020345193  MEMB      217             0.0000000000
     25174       217  POPC      H14A          -29.7927869345       29.8814043584      -15.2534294304  MEMB      217             0.0000000000
     25175       217  POPC      H14B          -30.3894373540       28.2653675078      -15.1596383117  MEMB      217             0.0000000000
     25176       217  POPC      H14C          -28.9453524064       28.4798831660      -16.1262571663  MEMB      217             0.0000000000
     25177       217  POPC      C15           -31.7873875653       30.0064354515      -16.5805954620  MEMB      217             0.0000000000
     25178       217  POPC      H15A          -32.3655394778       30.2945385718      -17.4461223591  MEMB      217             0.0000000000
     25179       217  POPC      H15B          -31.4142596990       30.9557621773      -16.2256949905  MEMB      217             0.0000000000
     25180       217  POPC      H15C          -32.4605853592       29.5547115706      -15.8670477392  MEMB      217             0.0000000000
     25181       217  POPC      C11           -30.6523958984       30.7143926463      -19.1591213272  MEMB      217             0.0000000000
     25182       217  POPC      H11A          -29.8814994067       30.8841378203      -19.9409309406  MEMB      217             0.0000000000
     25183       217  POPC      H11B          -31.1127557150       31.6861501850      -18.8796985633  MEMB      217             0.0000000000
     25184       217  POPC      P             -32.4560409264       30.3457004777      -21.0462712804  MEMB      217             0.0000000000
     25185       217  POPC      O13           -33.1653945179       29.1899883382      -21.5636703208  MEMB      217             0.0000000000
     25186       217  POPC      O14           -31.5246036718       31.0677259393      -21.9511752616  MEMB      217             0.0000000000
     25187       217  POPC      O12           -31.6713107952       29.9007774223      -19.7915237306  MEMB      217             0.0000000000
     25188       217  POPC      O11           -33.5366094898       31.3155523645      -20.4955013511  MEMB      217             0.0000000000
     25189       217  POPC      C1            -34.5049996890       30.7451440849      -19.5622960757  MEMB      217             0.0000000000
     25190       217  POPC      HA            -33.8802262437       30.6264313528      -18.6513149909  MEMB      217             0.0000000000
     25191       217  POPC      HB            -34.7820109174       29.7163953977      -19.8773548766  MEMB      217             0.0000000000
     25192       217  POPC      C2            -35.6752438742       31.6500578450      -19.0671662863  MEMB      217             0.0000000000
     25193       217  POPC      HS            -36.2533512683       32.0511516824      -19.9269549740  MEMB      217             0.0000000000
     25194       217  POPC      O21           -35.0702194077       32.6209222226      -18.2945148011  MEMB      217             0.0000000000
     25195       217  POPC      C21           -34.5111502151       33.6452164714      -18.8242673528  MEMB      217             0.0000000000
     25196       217  POPC      O22           -34.4741792816       33.9364006249      -20.0163629706  MEMB      217             0.0000000000
     25197       217  POPC      C22           -34.0410585099       34.6465668057      -17.7667117143  MEMB      217             0.0000000000
     25198       217  POPC      H2R           -34.7474762375       35.5038506315      -17.7856841216  MEMB      217             0.0000000000
     25199       217  POPC      H2S           -33.0162553230       34.9504694817      -18.0696020839  MEMB      217             0.0000000000
     25200       217  POPC      C3            -36.7335119687       30.8051920852      -18.2763476164  MEMB      217             0.0000000000
     25201       217  POPC      HX            -37.2028139841       29.9800920791      -18.8536572729  MEMB      217             0.0000000000
     25202       217  POPC      HY            -37.5331053029       31.4827885133      -17.9077902756  MEMB      217             0.0000000000
     25203       217  POPC      O31           -36.0378585452       30.0745061937      -17.2394826697  MEMB      217             0.0000000000
     25204       217  POPC      C31           -36.4802948108       30.0717061409      -16.0562402471  MEMB      217             0.0000000000
     25205       217  POPC      O32           -37.3795984835       30.7624437872      -15.5415939344  MEMB      217             0.0000000000
     25206       217  POPC      C32           -35.5317101885       29.1137073184      -15.3086044681  MEMB      217             0.0000000000
     25207       217  POPC      H2X           -34.8419052972       28.7420095069      -16.0962151914  MEMB      217             0.0000000000
     25208       217  POPC      H2Y           -36.1651200547       28.3270472541      -14.8457012659  MEMB      217             0.0000000000
     25209       217  POPC      C23           -34.0874110916       33.9948341599      -16.3570635690  MEMB      217             0.0000000000
     25210       217  POPC      H3R           -33.4122454968       33.1155318169      -16.2842615386  MEMB      217             0.0000000000
     25211       217  POPC      H3S           -35.1064902412       33.5653805714      -16.2504397994  MEMB      217             0.0000000000
     25212       217  POPC      C24           -33.6976188265       34.9468742628      -15.2269764977  MEMB      217             0.0000000000
     25213       217  POPC      H4R           -34.4178646984       35.7866768992      -15.1254962177  MEMB      217             0.0000000000
     25214       217  POPC      H4S           -32.6676929083       35.3422324913      -15.3583743910  MEMB      217             0.0000000000
     25215       217  POPC      C25           -33.7324268014       34.1583806470      -13.8856668338  MEMB      217             0.0000000000
     25216       217  POPC      H5R           -33.0649002150       33.2703525396      -13.8740206232  MEMB      217             0.0000000000
     25217       217  POPC      H5S           -34.7624325532       33.8537751724      -13.6017220220  MEMB      217             0.0000000000
     25218       217  POPC      C26           -33.2258976371       35.0079038419      -12.7147679118  MEMB      217             0.0000000000
     25219       217  POPC      H6R           -33.7655849177       35.9768146966      -12.7801141756  MEMB      217             0.0000000000
     25220       217  POPC      H6S           -32.1283470423       35.1778420233      -12.6860482634  MEMB      217             0.0000000000
     25221       217  POPC      C27           -33.6062846741       34.5060830044      -11.2790770377  MEMB      217             0.0000000000
     25222       217  POPC      H7R           -34.7065800555       34.6244032088      -11.1807340470  MEMB      217             0.0000000000
     25223       217  POPC      H7S           -33.1525183875       35.2388450140      -10.5780223724  MEMB      217             0.0000000000
     25224       217  POPC      C28           -33.1151780432       33.0837627612      -10.9220701700  MEMB      217             0.0000000000
     25225       217  POPC      H8R           -33.4154136151       32.4354704226      -11.7728916529  MEMB      217             0.0000000000
     25226       217  POPC      H8S           -33.6203820546       32.8001364270       -9.9741013398  MEMB      217             0.0000000000
     25227       217  POPC      C29           -31.6437989950       33.1663125111      -10.7545518318  MEMB      217             0.0000000000
     25228       217  POPC      H91           -30.9938786136       32.6111755239      -11.4469582206  MEMB      217             0.0000000000
     25229       217  POPC      C210          -31.0204191854       33.6049373685       -9.6387571694  MEMB      217             0.0000000000
     25230       217  POPC      H101          -29.9253854810       33.5052785645       -9.6076252233  MEMB      217             0.0000000000
     25231       217  POPC      C211          -31.5417819982       34.1610414060       -8.3741939538  MEMB      217             0.0000000000
     25232       217  POPC      H11R          -32.6311669431       33.9429831686       -8.3776474372  MEMB      217             0.0000000000
     25233       217  POPC      H11S          -31.4644058085       35.2660638148       -8.2889912132  MEMB      217             0.0000000000
     25234       217  POPC      C212          -30.9163508491       33.4305073319       -7.1848853629  MEMB      217             0.0000000000
     25235       217  POPC      H12R          -29.9319720254       33.9072240323       -6.9897932088  MEMB      217             0.0000000000
     25236       217  POPC      H12S          -30.6503750772       32.3664105272       -7.3617351004  MEMB      217             0.0000000000
     25237       217  POPC      C213          -31.7285196438       33.5273117936       -5.9125384957  MEMB      217             0.0000000000
     25238       217  POPC      H13R          -32.4253052219       32.6739160539       -6.0558097230  MEMB      217             0.0000000000
     25239       217  POPC      H13S          -32.2979129873       34.4811258311       -5.9312731716  MEMB      217             0.0000000000
     25240       217  POPC      C214          -30.8622650972       33.2990703822       -4.6306152402  MEMB      217             0.0000000000
     25241       217  POPC      H14R          -30.0372912474       34.0423670345       -4.5952744724  MEMB      217             0.0000000000
     25242       217  POPC      H14S          -30.4046758999       32.2877961755       -4.6781289640  MEMB      217             0.0000000000
     25243       217  POPC      C215          -31.5667476696       33.4280208125       -3.2172612569  MEMB      217             0.0000000000
     25244       217  POPC      H15R          -31.9188151647       34.4556790533       -2.9842625470  MEMB      217             0.0000000000
     25245       217  POPC      H15S          -30.8308078496       33.0845317480       -2.4591526234  MEMB      217             0.0000000000
     25246       217  POPC      C216          -32.7820397891       32.5353798515       -2.9324960655  MEMB      217             0.0000000000
     25247       217  POPC      H16R          -32.4286021003       31.4838855644       -2.9938344391  MEMB      217             0.0000000000
     25248       217  POPC      H16S          -33.4167397537       32.7755442988       -3.8121530938  MEMB      217             0.0000000000
     25249       217  POPC      C217          -33.4907529479       32.7741702026       -1.5504048919  MEMB      217             0.0000000000
     25250       217  POPC      H17R          -34.4686914510       32.2524501853       -1.4744757609  MEMB      217             0.0000000000
     25251       217  POPC      H17S          -33.7311274893       33.8540651716       -1.6522288374  MEMB      217             0.0000000000
     25252       217  POPC      C218          -32.6158735289       32.3176573425       -0.3665389808  MEMB      217             0.0000000000
     25253       217  POPC      H18R          -31.6537721837       32.8681258322       -0.2912635000  MEMB      217             0.0000000000
     25254       217  POPC      H18S          -32.4395888559       31.2208214776       -0.3805391228  MEMB      217             0.0000000000
     25255       217  POPC      H18T          -33.2014233520       32.4330625107        0.5705477514  MEMB      217             0.0000000000
     25256       217  POPC      C33           -34.7702921678       29.6989735111      -14.0337761483  MEMB      217             0.0000000000
     25257       217  POPC      H3X           -35.5193105311       30.1506517281      -13.3487363939  MEMB      217             0.0000000000
     25258       217  POPC      H3Y           -34.1249379086       30.5309526088      -14.3882472641  MEMB      217             0.0000000000
     25259       217  POPC      C34           -33.9822923367       28.6544612473      -13.1318130370  MEMB      217             0.0000000000
     25260       217  POPC      H4X           -33.0026029189       28.6230614278      -13.6548273274  MEMB      217             0.0000000000
     25261       217  POPC      H4Y           -34.4820196650       27.6626547809      -13.1620350645  MEMB      217             0.0000000000
     25262       217  POPC      C35           -33.9450233839       29.2120465850      -11.6541043299  MEMB      217             0.0000000000
     25263       217  POPC      H5X           -34.9148350381       29.0070554807      -11.1523424076  MEMB      217             0.0000000000
     25264       217  POPC      H5Y           -33.8587916514       30.3192047639      -11.6211504230  MEMB      217             0.0000000000
     25265       217  POPC      C36           -32.8957743117       28.6038169544      -10.7067817853  MEMB      217             0.0000000000
     25266       217  POPC      H6X           -31.9080519970       28.5671034287      -11.2141049746  MEMB      217             0.0000000000
     25267       217  POPC      H6Y           -33.0582683750       27.5510017935      -10.3913502298  MEMB      217             0.0000000000
     25268       217  POPC      C37           -32.5838306351       29.3865336450       -9.4053007463  MEMB      217             0.0000000000
     25269       217  POPC      H7X           -32.3885973416       30.4233770673       -9.7533825523  MEMB      217             0.0000000000
     25270       217  POPC      H7Y           -31.6483565718       29.0243442257       -8.9277781703  MEMB      217             0.0000000000
     25271       217  POPC      C38           -33.6884701740       29.2660539401       -8.3435313296  MEMB      217             0.0000000000
     25272       217  POPC      H8X           -33.8594336452       28.2273175144       -7.9883987654  MEMB      217             0.0000000000
     25273       217  POPC      H8Y           -34.6513134054       29.3848381454       -8.8849588754  MEMB      217             0.0000000000
     25274       217  POPC      C39           -33.6329481579       30.4108795471       -7.2164402633  MEMB      217             0.0000000000
     25275       217  POPC      H9X           -33.8095586988       31.3678332727       -7.7525090181  MEMB      217             0.0000000000
     25276       217  POPC      H9Y           -32.5881761994       30.5438488574       -6.8627578249  MEMB      217             0.0000000000
     25277       217  POPC      C310          -34.6471393255       30.2842333514       -6.0569291809  MEMB      217             0.0000000000
     25278       217  POPC      H10X          -35.5971668565       29.7972027042       -6.3644515621  MEMB      217             0.0000000000
     25279       217  POPC      H10Y          -34.8693396269       31.2670080664       -5.5888452931  MEMB      217             0.0000000000
     25280       217  POPC      C311          -34.0910884266       29.3417455822       -4.9842071338  MEMB      217             0.0000000000
     25281       217  POPC      H11X          -32.9981417044       29.4972572544       -4.8592886574  MEMB      217             0.0000000000
     25282       217  POPC      H11Y          -34.3766178093       28.3050256130       -5.2635019385  MEMB      217             0.0000000000
     25283       217  POPC      C312          -34.8638586690       29.6788367731       -3.6920450849  MEMB      217             0.0000000000
     25284       217  POPC      H12X          -35.9316000769       29.4259593179       -3.8661208611  MEMB      217             0.0000000000
     25285       217  POPC      H12Y          -34.7220005934       30.7454122115       -3.4152518182  MEMB      217             0.0000000000
     25286       217  POPC      C313          -34.1754867554       28.8955305179       -2.5288973779  MEMB      217             0.0000000000
     25287       217  POPC      H13X          -33.2885067804       29.4970348937       -2.2360154852  MEMB      217             0.0000000000
     25288       217  POPC      H13Y          -34.0186351477       27.8901082141       -2.9748195782  MEMB      217             0.0000000000
     25289       217  POPC      C314          -35.0061083721       28.8999215583       -1.2510762342  MEMB      217             0.0000000000
     25290       217  POPC      H14X          -36.0205258773       28.4669157281       -1.3844320679  MEMB      217             0.0000000000
     25291       217  POPC      H14Y          -35.1809668289       29.9541866726       -0.9473143192  MEMB      217             0.0000000000
     25292       217  POPC      C315          -34.3364393651       27.9915847154       -0.2073774840  MEMB      217             0.0000000000
     25293       217  POPC      H15X          -35.0147263064       28.2107505344        0.6448045028  MEMB      217             0.0000000000
     25294       217  POPC      H15Y          -33.3299498491       28.3233720795        0.1261152533  MEMB      217             0.0000000000
     25295       217  POPC      C316          -34.2288976169       26.5759624106       -0.6598617095  MEMB      217             0.0000000000
     25296       217  POPC      H16X          -33.4179015883       26.3524502296       -1.3855673603  MEMB      217             0.0000000000
     25297       217  POPC      H16Y          -35.2303764838       26.1765274212       -0.9278418688  MEMB      217             0.0000000000
     25298       217  POPC      H16Z          -34.0349212603       26.0049568653        0.2732229274  MEMB      217             0.0000000000
     25299       218  POPC      N              32.0569690671      -28.7113568227      -21.0639505308  MEMB      218             0.0000000000
     25300       218  POPC      C12            32.6964569067      -30.0477113269      -20.6219560356  MEMB      218             0.0000000000
     25301       218  POPC      H12A           33.5850805555      -30.0935321398      -21.2340414774  MEMB      218             0.0000000000
     25302       218  POPC      H12B           32.1443394614      -30.9050838382      -20.9775942091  MEMB      218             0.0000000000
     25303       218  POPC      C13            31.9129941534      -28.8526931889      -22.5690842148  MEMB      218             0.0000000000
     25304       218  POPC      H13A           31.2135986534      -29.5923204827      -22.9299129786  MEMB      218             0.0000000000
     25305       218  POPC      H13B           31.6457944647      -27.8793854010      -22.9533712222  MEMB      218             0.0000000000
     25306       218  POPC      H13C           32.8910956143      -29.0571572966      -22.9788547852  MEMB      218             0.0000000000
     25307       218  POPC      C14            30.6816006883      -28.6340446684      -20.4681290954  MEMB      218             0.0000000000
     25308       218  POPC      H14A           30.2454488278      -27.6686815789      -20.6784758517  MEMB      218             0.0000000000
     25309       218  POPC      H14B           29.9920310771      -29.2785495851      -20.9930168418  MEMB      218             0.0000000000
     25310       218  POPC      H14C           30.6450499174      -28.8242519314      -19.4056390351  MEMB      218             0.0000000000
     25311       218  POPC      C15            32.8962070998      -27.5930634492      -20.7135711902  MEMB      218             0.0000000000
     25312       218  POPC      H15A           33.7012717154      -27.4787559257      -21.4243485378  MEMB      218             0.0000000000
     25313       218  POPC      H15B           33.2513740744      -27.7210232364      -19.7017002020  MEMB      218             0.0000000000
     25314       218  POPC      H15C           32.3060553103      -26.7021392015      -20.8696959948  MEMB      218             0.0000000000
     25315       218  POPC      C11            33.0407453697      -30.2586055736      -19.1227621558  MEMB      218             0.0000000000
     25316       218  POPC      H11A           33.8248926570      -29.5745660801      -18.7335013829  MEMB      218             0.0000000000
     25317       218  POPC      H11B           33.4741249956      -31.2748878457      -19.0058290903  MEMB      218             0.0000000000
     25318       218  POPC      P              31.9298459998      -29.8824549049      -16.8801323498  MEMB      218             0.0000000000
     25319       218  POPC      O13            30.5355073182      -29.6718206804      -16.4991734917  MEMB      218             0.0000000000
     25320       218  POPC      O14            32.6813969901      -28.6137282418      -16.7091556258  MEMB      218             0.0000000000
     25321       218  POPC      O12            31.9188307364      -30.2951967360      -18.3493975748  MEMB      218             0.0000000000
     25322       218  POPC      O11            32.5122955704      -31.0465171073      -16.0026877346  MEMB      218             0.0000000000
     25323       218  POPC      C1             31.8886892546      -32.3755133728      -16.1470539540  MEMB      218             0.0000000000
     25324       218  POPC      HA             32.3347667383      -32.9457522349      -16.9897660974  MEMB      218             0.0000000000
     25325       218  POPC      HB             30.8224263844      -32.3157659120      -16.4533785965  MEMB      218             0.0000000000
     25326       218  POPC      C2             31.9621387337      -33.2285426297      -14.8517852542  MEMB      218             0.0000000000
     25327       218  POPC      HS             31.3529264037      -34.1553652848      -14.9164483220  MEMB      218             0.0000000000
     25328       218  POPC      O21            31.4439320055      -32.4675538412      -13.7170787778  MEMB      218             0.0000000000
     25329       218  POPC      C21            30.2186140049      -32.0422553491      -13.6456649973  MEMB      218             0.0000000000
     25330       218  POPC      O22            29.2992400780      -32.4407243134      -14.3374618880  MEMB      218             0.0000000000
     25331       218  POPC      C22            30.0948715880      -30.9062154018      -12.6729302937  MEMB      218             0.0000000000
     25332       218  POPC      H2R            29.7729747595      -31.3003724624      -11.6853355001  MEMB      218             0.0000000000
     25333       218  POPC      H2S            29.2024161924      -30.4497492537      -13.1519746435  MEMB      218             0.0000000000
     25334       218  POPC      C3             33.4493769428      -33.6505269324      -14.4620941994  MEMB      218             0.0000000000
     25335       218  POPC      HX             34.0242083057      -34.1055481835      -15.2968672884  MEMB      218             0.0000000000
     25336       218  POPC      HY             33.2434625377      -34.4240083753      -13.6916095244  MEMB      218             0.0000000000
     25337       218  POPC      O31            34.2038980345      -32.5885394026      -13.9228763631  MEMB      218             0.0000000000
     25338       218  POPC      C31            35.3920152205      -32.9518126270      -13.4366095475  MEMB      218             0.0000000000
     25339       218  POPC      O32            35.8645396090      -34.0691900132      -13.5040292011  MEMB      218             0.0000000000
     25340       218  POPC      C32            35.9926456572      -31.7749864949      -12.7072502744  MEMB      218             0.0000000000
     25341       218  POPC      H2X            35.2618680683      -30.9392860007      -12.6637749990  MEMB      218             0.0000000000
     25342       218  POPC      H2Y            36.8786096978      -31.3650509395      -13.2376663351  MEMB      218             0.0000000000
     25343       218  POPC      C23            31.3058755637      -30.0333533159      -12.7203050327  MEMB      218             0.0000000000
     25344       218  POPC      H3R            31.6822945363      -30.0107717563      -13.7653504843  MEMB      218             0.0000000000
     25345       218  POPC      H3S            32.1407423197      -30.3738701895      -12.0711772269  MEMB      218             0.0000000000
     25346       218  POPC      C24            31.0263845208      -28.6199056291      -12.1726659910  MEMB      218             0.0000000000
     25347       218  POPC      H4R            30.3643187670      -28.6330022763      -11.2805795834  MEMB      218             0.0000000000
     25348       218  POPC      H4S            30.5766415003      -27.9876621791      -12.9678515855  MEMB      218             0.0000000000
     25349       218  POPC      C25            32.3495758024      -28.0107161609      -11.7439850838  MEMB      218             0.0000000000
     25350       218  POPC      H5R            32.3942192159      -26.9034976186      -11.8239539575  MEMB      218             0.0000000000
     25351       218  POPC      H5S            33.1473162811      -28.3396301611      -12.4438040793  MEMB      218             0.0000000000
     25352       218  POPC      C26            32.7951429089      -28.3657733675      -10.3426757668  MEMB      218             0.0000000000
     25353       218  POPC      H6R            33.1774388651      -29.4029563876      -10.2312221437  MEMB      218             0.0000000000
     25354       218  POPC      H6S            31.9279020433      -28.2030583849       -9.6675920335  MEMB      218             0.0000000000
     25355       218  POPC      C27            34.0015571545      -27.5873632137       -9.8120287571  MEMB      218             0.0000000000
     25356       218  POPC      H7R            33.7171092776      -26.5778731127       -9.4455042917  MEMB      218             0.0000000000
     25357       218  POPC      H7S            34.8379147343      -27.4510553755      -10.5305326521  MEMB      218             0.0000000000
     25358       218  POPC      C28            34.5777621317      -28.3541482661       -8.5645838809  MEMB      218             0.0000000000
     25359       218  POPC      H8R            35.6197721837      -27.9844641761       -8.4556352548  MEMB      218             0.0000000000
     25360       218  POPC      H8S            34.5724468789      -29.4271897187       -8.8524636005  MEMB      218             0.0000000000
     25361       218  POPC      C29            33.9419873845      -27.9524558135       -7.2964902180  MEMB      218             0.0000000000
     25362       218  POPC      H91            32.9271475064      -28.2792874500       -7.0257858380  MEMB      218             0.0000000000
     25363       218  POPC      C210           34.5246088766      -27.2251528798       -6.3483430099  MEMB      218             0.0000000000
     25364       218  POPC      H101           33.9149201151      -26.8877228639       -5.4972139935  MEMB      218             0.0000000000
     25365       218  POPC      C211           35.9137545405      -26.6385900952       -6.3122223941  MEMB      218             0.0000000000
     25366       218  POPC      H11R           35.9533992744      -25.7583442059       -5.6355266832  MEMB      218             0.0000000000
     25367       218  POPC      H11S           36.2057398019      -26.2613504744       -7.3155944773  MEMB      218             0.0000000000
     25368       218  POPC      C212           37.0184345613      -27.5395446175       -5.8298549163  MEMB      218             0.0000000000
     25369       218  POPC      H12R           38.0104772511      -27.0864459397       -6.0416893212  MEMB      218             0.0000000000
     25370       218  POPC      H12S           36.9778738965      -28.4877947509       -6.4073470185  MEMB      218             0.0000000000
     25371       218  POPC      C213           37.1065604692      -27.8285782374       -4.3408515670  MEMB      218             0.0000000000
     25372       218  POPC      H13R           37.2838956448      -26.9460872891       -3.6896349586  MEMB      218             0.0000000000
     25373       218  POPC      H13S           37.9427377224      -28.5556851641       -4.2605724273  MEMB      218             0.0000000000
     25374       218  POPC      C214           35.8917833428      -28.6647290701       -3.7225533300  MEMB      218             0.0000000000
     25375       218  POPC      H14R           35.5819546208      -29.4368283557       -4.4588893560  MEMB      218             0.0000000000
     25376       218  POPC      H14S           35.0803101666      -27.9100830882       -3.6429185326  MEMB      218             0.0000000000
     25377       218  POPC      C215           36.0592834227      -29.2986924344       -2.3228932628  MEMB      218             0.0000000000
     25378       218  POPC      H15R           36.0962032753      -28.4195486626       -1.6446129852  MEMB      218             0.0000000000
     25379       218  POPC      H15S           36.9323891628      -29.9792477553       -2.4169773061  MEMB      218             0.0000000000
     25380       218  POPC      C216           34.7666418652      -30.1247897726       -1.9355332610  MEMB      218             0.0000000000
     25381       218  POPC      H16R           34.4052978571      -30.6554930529       -2.8422338633  MEMB      218             0.0000000000
     25382       218  POPC      H16S           33.9367942383      -29.4514590049       -1.6317253033  MEMB      218             0.0000000000
     25383       218  POPC      C217           34.9581466610      -31.1512792044       -0.8468944460  MEMB      218             0.0000000000
     25384       218  POPC      H17R           35.6353051253      -30.7726791230       -0.0516345017  MEMB      218             0.0000000000
     25385       218  POPC      H17S           35.4115453031      -31.9626135157       -1.4555708948  MEMB      218             0.0000000000
     25386       218  POPC      C218           33.6240871365      -31.6235782846       -0.1875669806  MEMB      218             0.0000000000
     25387       218  POPC      H18R           33.2307295136      -30.7017882426        0.2919050412  MEMB      218             0.0000000000
     25388       218  POPC      H18S           33.7902866940      -32.3773281455        0.6115327698  MEMB      218             0.0000000000
     25389       218  POPC      H18T           32.8480961631      -31.8661188393       -0.9447545548  MEMB      218             0.0000000000
     25390       218  POPC      C33            36.3616973128      -32.2281519237      -11.2026677194  MEMB      218             0.0000000000
     25391       218  POPC      H3X            36.8963472360      -31.3883487229      -10.7095136666  MEMB      218             0.0000000000
     25392       218  POPC      H3Y            37.0585366297      -33.0838808390      -11.0743583333  MEMB      218             0.0000000000
     25393       218  POPC      C34            35.1281756678      -32.3176081867      -10.3249620194  MEMB      218             0.0000000000
     25394       218  POPC      H4X            34.5747293533      -31.3580082496      -10.4097342870  MEMB      218             0.0000000000
     25395       218  POPC      H4Y            35.5806722390      -32.3660437900       -9.3114424536  MEMB      218             0.0000000000
     25396       218  POPC      C35            34.1554051170      -33.5501732081      -10.5552860089  MEMB      218             0.0000000000
     25397       218  POPC      H5X            34.7324026272      -34.4845690279      -10.7235103569  MEMB      218             0.0000000000
     25398       218  POPC      H5Y            33.5974403927      -33.2064802772      -11.4524320916  MEMB      218             0.0000000000
     25399       218  POPC      C36            33.2561850092      -33.6836542329       -9.3542674007  MEMB      218             0.0000000000
     25400       218  POPC      H6X            33.8355237930      -33.5972572008       -8.4102216489  MEMB      218             0.0000000000
     25401       218  POPC      H6Y            32.7461640848      -34.6672627574       -9.2723311323  MEMB      218             0.0000000000
     25402       218  POPC      C37            32.2005518214      -32.4856668906       -9.2052041732  MEMB      218             0.0000000000
     25403       218  POPC      H7X            31.3861303614      -32.5706967215       -9.9560762697  MEMB      218             0.0000000000
     25404       218  POPC      H7Y            32.5242794155      -31.4283568647       -9.3129857941  MEMB      218             0.0000000000
     25405       218  POPC      C38            31.5445049171      -32.5912725328       -7.8160941747  MEMB      218             0.0000000000
     25406       218  POPC      H8X            32.3035670567      -32.6619501176       -7.0079165384  MEMB      218             0.0000000000
     25407       218  POPC      H8Y            30.9064573359      -33.5005984422       -7.7975801150  MEMB      218             0.0000000000
     25408       218  POPC      C39            30.7047605979      -31.3352089813       -7.5114229389  MEMB      218             0.0000000000
     25409       218  POPC      H9X            29.9617798505      -31.2385186810       -8.3317588622  MEMB      218             0.0000000000
     25410       218  POPC      H9Y            31.3268531304      -30.4177793289       -7.4362916825  MEMB      218             0.0000000000
     25411       218  POPC      C310           29.9059701310      -31.4702347968       -6.1686265292  MEMB      218             0.0000000000
     25412       218  POPC      H10X           30.6146178277      -31.9739192113       -5.4769320838  MEMB      218             0.0000000000
     25413       218  POPC      H10Y           28.9821735918      -32.0859324592       -6.2114940862  MEMB      218             0.0000000000
     25414       218  POPC      C311           29.4096932594      -30.1002033621       -5.4226005616  MEMB      218             0.0000000000
     25415       218  POPC      H11X           28.7492075325      -30.3793122304       -4.5739669865  MEMB      218             0.0000000000
     25416       218  POPC      H11Y           28.6669719633      -29.6113065300       -6.0886830765  MEMB      218             0.0000000000
     25417       218  POPC      C312           30.4322638121      -29.0254332371       -5.1780359234  MEMB      218             0.0000000000
     25418       218  POPC      H12X           29.9709404793      -28.0497411208       -4.9143564687  MEMB      218             0.0000000000
     25419       218  POPC      H12Y           31.0166036374      -28.8125013108       -6.0986490236  MEMB      218             0.0000000000
     25420       218  POPC      C313           31.5180306640      -29.6166144480       -4.1419462294  MEMB      218             0.0000000000
     25421       218  POPC      H13X           32.3567723226      -28.8880804596       -4.1334937070  MEMB      218             0.0000000000
     25422       218  POPC      H13Y           32.0861603381      -30.5143646634       -4.4668987356  MEMB      218             0.0000000000
     25423       218  POPC      C314           31.0326898842      -29.7766517187       -2.6293151087  MEMB      218             0.0000000000
     25424       218  POPC      H14X           31.9686292044      -30.1479075768       -2.1597313850  MEMB      218             0.0000000000
     25425       218  POPC      H14Y           30.2493309631      -30.5616575243       -2.5627135116  MEMB      218             0.0000000000
     25426       218  POPC      C315           30.6786939928      -28.4361476245       -1.9652718197  MEMB      218             0.0000000000
     25427       218  POPC      H15X           30.3451292469      -28.7718919283       -0.9601195714  MEMB      218             0.0000000000
     25428       218  POPC      H15Y           29.7653299194      -28.1042260100       -2.5037097026  MEMB      218             0.0000000000
     25429       218  POPC      C316           31.7169759719      -27.2749315481       -1.8900719907  MEMB      218             0.0000000000
     25430       218  POPC      H16X           31.2575331615      -26.3474282723       -1.4863750129  MEMB      218             0.0000000000
     25431       218  POPC      H16Y           32.0285534087      -27.0127964361       -2.9237670804  MEMB      218             0.0000000000
     25432       218  POPC      H16Z           32.5753598191      -27.6489090323       -1.2920431573  MEMB      218             0.0000000000
     25433       219  POPC      N             -23.5634100858       33.5903492344      -19.7114479945  MEMB      219             0.0000000000
     25434       219  POPC      C12           -24.2775493294       33.7580399689      -18.3754507899  MEMB      219             0.0000000000
     25435       219  POPC      H12A          -23.7991880108       33.0151872028      -17.7543709427  MEMB      219             0.0000000000
     25436       219  POPC      H12B          -25.2794311898       33.3890347107      -18.5381404310  MEMB      219             0.0000000000
     25437       219  POPC      C13           -24.2037685003       34.1907754125      -20.9142677267  MEMB      219             0.0000000000
     25438       219  POPC      H13A          -24.8385444792       33.3676771773      -21.2074718368  MEMB      219             0.0000000000
     25439       219  POPC      H13B          -24.7930501443       35.0806108193      -20.7489194896  MEMB      219             0.0000000000
     25440       219  POPC      H13C          -23.5145568234       34.2973429229      -21.7389074364  MEMB      219             0.0000000000
     25441       219  POPC      C14           -22.0977422515       34.1143342103      -19.5978952470  MEMB      219             0.0000000000
     25442       219  POPC      H14A          -21.6117405288       33.7121915432      -20.4745271061  MEMB      219             0.0000000000
     25443       219  POPC      H14B          -22.0538858632       35.1873748579      -19.7121775868  MEMB      219             0.0000000000
     25444       219  POPC      H14C          -21.5588245819       33.7969140712      -18.7174338538  MEMB      219             0.0000000000
     25445       219  POPC      C15           -23.4734812087       31.9914527416      -19.8821830611  MEMB      219             0.0000000000
     25446       219  POPC      H15A          -22.9654454380       31.7774312096      -20.8108887840  MEMB      219             0.0000000000
     25447       219  POPC      H15B          -24.4901778134       31.6468737968      -20.0004766404  MEMB      219             0.0000000000
     25448       219  POPC      H15C          -23.0150344689       31.3797441233      -19.1192681562  MEMB      219             0.0000000000
     25449       219  POPC      C11           -24.1951057794       35.1414184070      -17.7475474052  MEMB      219             0.0000000000
     25450       219  POPC      H11A          -23.0891694735       35.2227288435      -17.6796169620  MEMB      219             0.0000000000
     25451       219  POPC      H11B          -24.4878790981       35.1435261203      -16.6758196440  MEMB      219             0.0000000000
     25452       219  POPC      P             -26.2573444918       36.3665368652      -18.6146564442  MEMB      219             0.0000000000
     25453       219  POPC      O13           -26.6860361638       36.5477949935      -19.9584559118  MEMB      219             0.0000000000
     25454       219  POPC      O14           -26.6171777769       37.3902771431      -17.5930007199  MEMB      219             0.0000000000
     25455       219  POPC      O12           -24.6861161088       36.1424855135      -18.5565236137  MEMB      219             0.0000000000
     25456       219  POPC      O11           -26.8394753109       34.9427564547      -18.0485711059  MEMB      219             0.0000000000
     25457       219  POPC      C1            -28.0106081793       34.4934203621      -18.7352721651  MEMB      219             0.0000000000
     25458       219  POPC      HA            -27.6277460824       33.9962564567      -19.6520958987  MEMB      219             0.0000000000
     25459       219  POPC      HB            -28.6844107399       35.3043348874      -19.0855986802  MEMB      219             0.0000000000
     25460       219  POPC      C2            -28.8728653588       33.4415296003      -17.9884499509  MEMB      219             0.0000000000
     25461       219  POPC      HS            -29.8493569361       33.2900182671      -18.4962192739  MEMB      219             0.0000000000
     25462       219  POPC      O21           -29.2578637262       33.8433883816      -16.6424189196  MEMB      219             0.0000000000
     25463       219  POPC      C21           -29.4057084281       35.0719081339      -16.2989259534  MEMB      219             0.0000000000
     25464       219  POPC      O22           -29.4232256487       36.0437988656      -17.0474023214  MEMB      219             0.0000000000
     25465       219  POPC      C22           -29.3917521216       35.2148170645      -14.8533449716  MEMB      219             0.0000000000
     25466       219  POPC      H2R           -30.0657086479       34.4384780582      -14.4321539672  MEMB      219             0.0000000000
     25467       219  POPC      H2S           -29.5135796369       36.2129087839      -14.3808070622  MEMB      219             0.0000000000
     25468       219  POPC      C3            -28.1041192006       32.0703106331      -17.7090511635  MEMB      219             0.0000000000
     25469       219  POPC      HX            -27.9453720957       31.6975155328      -18.7435288860  MEMB      219             0.0000000000
     25470       219  POPC      HY            -28.8427959239       31.4495013900      -17.1583486913  MEMB      219             0.0000000000
     25471       219  POPC      O31           -26.8263995504       32.4029722259      -17.0472913618  MEMB      219             0.0000000000
     25472       219  POPC      C31           -26.5601328064       31.4396520899      -16.1938510652  MEMB      219             0.0000000000
     25473       219  POPC      O32           -27.1694843642       30.4186898997      -16.0161808899  MEMB      219             0.0000000000
     25474       219  POPC      C32           -25.2459925291       31.7779596972      -15.5451495714  MEMB      219             0.0000000000
     25475       219  POPC      H2X           -25.0064213162       32.8528161223      -15.6921531837  MEMB      219             0.0000000000
     25476       219  POPC      H2Y           -24.5079089428       31.0399428525      -15.9257874079  MEMB      219             0.0000000000
     25477       219  POPC      C23           -27.9073613100       34.9387951862      -14.3931832138  MEMB      219             0.0000000000
     25478       219  POPC      H3R           -27.3023014844       35.7795397866      -14.7948945331  MEMB      219             0.0000000000
     25479       219  POPC      H3S           -27.4191882527       34.0344590173      -14.8153020657  MEMB      219             0.0000000000
     25480       219  POPC      C24           -27.6879923236       34.7809553704      -12.8810562067  MEMB      219             0.0000000000
     25481       219  POPC      H4R           -27.8221008971       35.6827662254      -12.2461758078  MEMB      219             0.0000000000
     25482       219  POPC      H4S           -26.6093063723       34.6825488240      -12.6339252059  MEMB      219             0.0000000000
     25483       219  POPC      C25           -28.4953315319       33.5629649205      -12.2074811855  MEMB      219             0.0000000000
     25484       219  POPC      H5R           -28.2954766197       32.7009217965      -12.8792403991  MEMB      219             0.0000000000
     25485       219  POPC      H5S           -29.5802981622       33.5520939321      -12.4463339602  MEMB      219             0.0000000000
     25486       219  POPC      C26           -28.1948022345       33.2852748256      -10.7807031978  MEMB      219             0.0000000000
     25487       219  POPC      H6R           -27.0868789780       33.3215897269      -10.7064857834  MEMB      219             0.0000000000
     25488       219  POPC      H6S           -28.5071438984       32.2255380513      -10.6635637608  MEMB      219             0.0000000000
     25489       219  POPC      C27           -28.9503582978       34.0918321064       -9.7664169888  MEMB      219             0.0000000000
     25490       219  POPC      H7R           -29.9295991817       34.4867950143      -10.1119787129  MEMB      219             0.0000000000
     25491       219  POPC      H7S           -28.4401940541       35.0683863740       -9.6236048221  MEMB      219             0.0000000000
     25492       219  POPC      C28           -29.1103142234       33.4754676653       -8.3670442620  MEMB      219             0.0000000000
     25493       219  POPC      H8R           -29.7373528363       32.5608528690       -8.4350377895  MEMB      219             0.0000000000
     25494       219  POPC      H8S           -29.7864214945       34.1106076764       -7.7556555341  MEMB      219             0.0000000000
     25495       219  POPC      C29           -27.7768791737       33.0014944103       -7.8050111170  MEMB      219             0.0000000000
     25496       219  POPC      H91           -27.5148258765       32.0302173219       -8.2499254057  MEMB      219             0.0000000000
     25497       219  POPC      C210          -27.0751973562       33.6170651816       -6.7779901568  MEMB      219             0.0000000000
     25498       219  POPC      H101          -26.1824360884       33.0632983654       -6.4519234878  MEMB      219             0.0000000000
     25499       219  POPC      C211          -27.4754249805       34.8711531847       -6.0791367623  MEMB      219             0.0000000000
     25500       219  POPC      H11R          -27.6872758983       35.5992866547       -6.8910863583  MEMB      219             0.0000000000
     25501       219  POPC      H11S          -26.6571140751       35.3395846042       -5.4915482942  MEMB      219             0.0000000000
     25502       219  POPC      C212          -28.5360301068       34.6646012316       -5.0771387161  MEMB      219             0.0000000000
     25503       219  POPC      H12R          -28.2277416538       33.8903136344       -4.3424567912  MEMB      219             0.0000000000
     25504       219  POPC      H12S          -29.4598178302       34.3425100848       -5.6036316172  MEMB      219             0.0000000000
     25505       219  POPC      C213          -28.9891062076       35.9214177277       -4.2698800707  MEMB      219             0.0000000000
     25506       219  POPC      H13R          -29.0048051866       36.7695575399       -4.9873292026  MEMB      219             0.0000000000
     25507       219  POPC      H13S          -28.3026518683       36.0729315276       -3.4095631914  MEMB      219             0.0000000000
     25508       219  POPC      C214          -30.4211321937       35.7665206952       -3.7806923116  MEMB      219             0.0000000000
     25509       219  POPC      H14R          -31.1031367110       35.2915045783       -4.5179517269  MEMB      219             0.0000000000
     25510       219  POPC      H14S          -30.8063228602       36.7965249527       -3.6224531009  MEMB      219             0.0000000000
     25511       219  POPC      C215          -30.4589580502       34.9088643985       -2.4477817989  MEMB      219             0.0000000000
     25512       219  POPC      H15R          -29.6464513111       35.3603566274       -1.8392528338  MEMB      219             0.0000000000
     25513       219  POPC      H15S          -30.1568584915       33.8972866741       -2.7938560927  MEMB      219             0.0000000000
     25514       219  POPC      C216          -31.7744815932       34.9979740456       -1.6795585974  MEMB      219             0.0000000000
     25515       219  POPC      H16R          -32.5926133394       34.8529521532       -2.4170889106  MEMB      219             0.0000000000
     25516       219  POPC      H16S          -31.9971160362       35.9581715890       -1.1669430099  MEMB      219             0.0000000000
     25517       219  POPC      C217          -31.9710094456       33.9000404375       -0.5994823433  MEMB      219             0.0000000000
     25518       219  POPC      H17R          -31.7478106424       32.9571591836       -1.1430622550  MEMB      219             0.0000000000
     25519       219  POPC      H17S          -33.0257884227       33.8706080951       -0.2517817414  MEMB      219             0.0000000000
     25520       219  POPC      C218          -31.0453649683       34.1602802710        0.5929456493  MEMB      219             0.0000000000
     25521       219  POPC      H18R          -30.9276176653       33.1894195008        1.1200940202  MEMB      219             0.0000000000
     25522       219  POPC      H18S          -31.3644880227       34.9545601027        1.3011829977  MEMB      219             0.0000000000
     25523       219  POPC      H18T          -30.0367686637       34.4769670366        0.2512364992  MEMB      219             0.0000000000
     25524       219  POPC      C33           -25.1923210936       31.6287477033      -14.0537946970  MEMB      219             0.0000000000
     25525       219  POPC      H3X           -25.2285222692       30.5653729664      -13.7340378998  MEMB      219             0.0000000000
     25526       219  POPC      H3Y           -26.1123445334       32.1320139753      -13.6869149517  MEMB      219             0.0000000000
     25527       219  POPC      C34           -23.9806927379       32.3562286118      -13.5203221051  MEMB      219             0.0000000000
     25528       219  POPC      H4X           -24.3375020432       33.3270382743      -13.1146911761  MEMB      219             0.0000000000
     25529       219  POPC      H4Y           -23.2705603553       32.6326979333      -14.3287759241  MEMB      219             0.0000000000
     25530       219  POPC      C35           -23.3354136813       31.6452480201      -12.2999662711  MEMB      219             0.0000000000
     25531       219  POPC      H5X           -23.0552786220       30.6407675141      -12.6831951858  MEMB      219             0.0000000000
     25532       219  POPC      H5Y           -24.1136336087       31.4953618714      -11.5213591349  MEMB      219             0.0000000000
     25533       219  POPC      C36           -22.1617013503       32.3487225379      -11.6739698658  MEMB      219             0.0000000000
     25534       219  POPC      H6X           -21.4279951759       32.7162903849      -12.4228959461  MEMB      219             0.0000000000
     25535       219  POPC      H6Y           -21.6720577060       31.5655667348      -11.0565259012  MEMB      219             0.0000000000
     25536       219  POPC      C37           -22.5491664410       33.4969115754      -10.7133605109  MEMB      219             0.0000000000
     25537       219  POPC      H7X           -23.4348860099       33.9988254941      -11.1582248392  MEMB      219             0.0000000000
     25538       219  POPC      H7Y           -21.7519156520       34.2534834469      -10.5511525391  MEMB      219             0.0000000000
     25539       219  POPC      C38           -22.7206475453       33.0313897248       -9.2744208356  MEMB      219             0.0000000000
     25540       219  POPC      H8X           -21.7609765039       32.5649515106       -8.9649251824  MEMB      219             0.0000000000
     25541       219  POPC      H8Y           -23.4488423580       32.1988813927       -9.3792211588  MEMB      219             0.0000000000
     25542       219  POPC      C39           -22.9077018606       34.0750884210       -8.2837842651  MEMB      219             0.0000000000
     25543       219  POPC      H9X           -23.8282799814       34.6515350583       -8.5173787362  MEMB      219             0.0000000000
     25544       219  POPC      H9Y           -22.0345239787       34.7609730582       -8.2457930724  MEMB      219             0.0000000000
     25545       219  POPC      C310          -23.0148229143       33.5823165109       -6.8689395678  MEMB      219             0.0000000000
     25546       219  POPC      H10X          -22.0513539731       33.3238850666       -6.3797952203  MEMB      219             0.0000000000
     25547       219  POPC      H10Y          -23.6923857737       32.7065856215       -6.7776996306  MEMB      219             0.0000000000
     25548       219  POPC      C311          -23.4814687871       34.5648580953       -5.8086914091  MEMB      219             0.0000000000
     25549       219  POPC      H11X          -24.4934283797       34.8937619248       -6.1281922593  MEMB      219             0.0000000000
     25550       219  POPC      H11Y          -22.9182038693       35.5076115443       -5.9768288409  MEMB      219             0.0000000000
     25551       219  POPC      C312          -23.5451164989       34.1019154574       -4.3695028979  MEMB      219             0.0000000000
     25552       219  POPC      H12X          -22.5672305428       33.8258369707       -3.9202360116  MEMB      219             0.0000000000
     25553       219  POPC      H12Y          -24.1302651034       33.1585797572       -4.4146633472  MEMB      219             0.0000000000
     25554       219  POPC      C313          -24.0898846770       35.1584581110       -3.4796274130  MEMB      219             0.0000000000
     25555       219  POPC      H13X          -24.6586655140       35.9275383926       -4.0447157283  MEMB      219             0.0000000000
     25556       219  POPC      H13Y          -23.3378113849       35.8543159351       -3.0501060336  MEMB      219             0.0000000000
     25557       219  POPC      C314          -24.7011655976       34.5169829092       -2.2022183214  MEMB      219             0.0000000000
     25558       219  POPC      H14X          -25.0976955262       35.2893377083       -1.5089997399  MEMB      219             0.0000000000
     25559       219  POPC      H14Y          -23.9144687273       33.8987007869       -1.7193567283  MEMB      219             0.0000000000
     25560       219  POPC      C315          -25.9259830937       33.6487505081       -2.4793061526  MEMB      219             0.0000000000
     25561       219  POPC      H15X          -25.7699546371       32.7797587832       -3.1537162777  MEMB      219             0.0000000000
     25562       219  POPC      H15Y          -26.7115527860       34.3102236474       -2.9031622463  MEMB      219             0.0000000000
     25563       219  POPC      C316          -26.5342166226       33.0781397701       -1.1014484405  MEMB      219             0.0000000000
     25564       219  POPC      H16X          -27.3230993987       32.3401786740       -1.3610603841  MEMB      219             0.0000000000
     25565       219  POPC      H16Y          -26.8133052644       33.9261646508       -0.4401736287  MEMB      219             0.0000000000
     25566       219  POPC      H16Z          -25.7370003348       32.4442951482       -0.6575935085  MEMB      219             0.0000000000
     25567       220  POPC      N             -40.8027296920      -17.3542910055      -21.1873594084  MEMB      220             0.0000000000
     25568       220  POPC      C12           -39.6801704636      -17.5934389202      -20.2905907769  MEMB      220             0.0000000000
     25569       220  POPC      H12A          -38.7690992811      -17.3839569503      -20.8313926425  MEMB      220             0.0000000000
     25570       220  POPC      H12B          -39.6511795798      -18.6668950896      -20.1754765617  MEMB      220             0.0000000000
     25571       220  POPC      C13           -41.2564045038      -15.9370928027      -21.3908721128  MEMB      220             0.0000000000
     25572       220  POPC      H13A          -41.2536593312      -15.4595084498      -20.4222102956  MEMB      220             0.0000000000
     25573       220  POPC      H13B          -40.7091774531      -15.4340276525      -22.1743694172  MEMB      220             0.0000000000
     25574       220  POPC      H13C          -42.3068031937      -16.0389777456      -21.6203974536  MEMB      220             0.0000000000
     25575       220  POPC      C14           -40.5204879693      -18.0523270279      -22.4949882610  MEMB      220             0.0000000000
     25576       220  POPC      H14A          -41.3720956693      -18.1233283200      -23.1553843061  MEMB      220             0.0000000000
     25577       220  POPC      H14B          -39.7955078205      -17.4388193943      -23.0091982267  MEMB      220             0.0000000000
     25578       220  POPC      H14C          -40.0444270527      -19.0108697023      -22.3502057960  MEMB      220             0.0000000000
     25579       220  POPC      C15           -42.0476436174      -18.0068160001      -20.6353345902  MEMB      220             0.0000000000
     25580       220  POPC      H15A          -42.2596772733      -18.8930305442      -21.2150461649  MEMB      220             0.0000000000
     25581       220  POPC      H15B          -42.8924259424      -17.3366428327      -20.6954245955  MEMB      220             0.0000000000
     25582       220  POPC      H15C          -41.9255692294      -18.4073304080      -19.6398014332  MEMB      220             0.0000000000
     25583       220  POPC      C11           -39.5662365386      -16.8459518754      -18.9612483367  MEMB      220             0.0000000000
     25584       220  POPC      H11A          -39.7891703519      -15.7708501364      -19.1308878469  MEMB      220             0.0000000000
     25585       220  POPC      H11B          -38.5061545347      -16.9258412293      -18.6385026365  MEMB      220             0.0000000000
     25586       220  POPC      P             -40.2894107073      -18.2865558187      -16.8098378763  MEMB      220             0.0000000000
     25587       220  POPC      O13           -38.8254658744      -18.1857542331      -16.4034539372  MEMB      220             0.0000000000
     25588       220  POPC      O14           -40.8313802203      -19.6658249293      -17.1365250719  MEMB      220             0.0000000000
     25589       220  POPC      O12           -40.5434705410      -17.3753673754      -18.0495328957  MEMB      220             0.0000000000
     25590       220  POPC      O11           -41.1293904683      -17.5977953152      -15.6402567358  MEMB      220             0.0000000000
     25591       220  POPC      C1            -42.2047899084      -16.7381510349      -15.9992340691  MEMB      220             0.0000000000
     25592       220  POPC      HA            -42.6138952222      -17.2936445777      -16.8700846966  MEMB      220             0.0000000000
     25593       220  POPC      HB            -41.8545994153      -15.7265818185      -16.2965810908  MEMB      220             0.0000000000
     25594       220  POPC      C2            -43.2695560392      -16.6231738570      -14.8617796299  MEMB      220             0.0000000000
     25595       220  POPC      HS            -44.1255697818      -15.9766796083      -15.1509283155  MEMB      220             0.0000000000
     25596       220  POPC      O21           -42.6429246328      -16.0502886983      -13.6777936110  MEMB      220             0.0000000000
     25597       220  POPC      C21           -42.2544170949      -14.7826199349      -13.7485529699  MEMB      220             0.0000000000
     25598       220  POPC      O22           -42.5945090652      -13.9515836373      -14.5814256077  MEMB      220             0.0000000000
     25599       220  POPC      C22           -41.3284628078      -14.5523405081      -12.5274733414  MEMB      220             0.0000000000
     25600       220  POPC      H2R           -41.1963345340      -13.4540421567      -12.4244991364  MEMB      220             0.0000000000
     25601       220  POPC      H2S           -40.3649239736      -15.0757773629      -12.7061573107  MEMB      220             0.0000000000
     25602       220  POPC      C3            -43.8620086152      -18.0264777951      -14.3904201457  MEMB      220             0.0000000000
     25603       220  POPC      HX            -44.5313192253      -18.3942783295      -15.1973075373  MEMB      220             0.0000000000
     25604       220  POPC      HY            -44.3310544138      -17.7963350965      -13.4099350356  MEMB      220             0.0000000000
     25605       220  POPC      O31           -42.7694289165      -18.9178490251      -14.1885352956  MEMB      220             0.0000000000
     25606       220  POPC      C31           -42.9757912420      -19.9565282063      -13.4025668561  MEMB      220             0.0000000000
     25607       220  POPC      O32           -44.0111872016      -20.1293168316      -12.7891104177  MEMB      220             0.0000000000
     25608       220  POPC      C32           -41.8561122894      -20.9145066490      -13.5044968532  MEMB      220             0.0000000000
     25609       220  POPC      H2X           -41.8703139620      -21.3442751329      -14.5289081215  MEMB      220             0.0000000000
     25610       220  POPC      H2Y           -42.0202015890      -21.7535920129      -12.7950382267  MEMB      220             0.0000000000
     25611       220  POPC      C23           -42.0705321557      -15.1775397598      -11.3295827582  MEMB      220             0.0000000000
     25612       220  POPC      H3R           -41.3311699688      -15.1816216788      -10.5003376296  MEMB      220             0.0000000000
     25613       220  POPC      H3S           -42.2890834452      -16.2629725860      -11.4211908380  MEMB      220             0.0000000000
     25614       220  POPC      C24           -43.3113451346      -14.5273335233      -10.7598061021  MEMB      220             0.0000000000
     25615       220  POPC      H4R           -44.1303549127      -14.4679466799      -11.5081489182  MEMB      220             0.0000000000
     25616       220  POPC      H4S           -43.1447562832      -13.4632974621      -10.4870481742  MEMB      220             0.0000000000
     25617       220  POPC      C25           -43.6931403193      -15.2054361421       -9.3716125241  MEMB      220             0.0000000000
     25618       220  POPC      H5R           -44.6547155073      -14.7848753257       -9.0071638843  MEMB      220             0.0000000000
     25619       220  POPC      H5S           -42.9258181435      -15.0331887405       -8.5868398336  MEMB      220             0.0000000000
     25620       220  POPC      C26           -43.8883013111      -16.7405521169       -9.3709277195  MEMB      220             0.0000000000
     25621       220  POPC      H6R           -42.9089274934      -17.2081300820       -9.6086633080  MEMB      220             0.0000000000
     25622       220  POPC      H6S           -44.5944833391      -16.7725124112      -10.2280189734  MEMB      220             0.0000000000
     25623       220  POPC      C27           -44.2176523050      -17.3361988097       -8.0172945736  MEMB      220             0.0000000000
     25624       220  POPC      H7R           -44.9379610542      -16.6526420082       -7.5190705997  MEMB      220             0.0000000000
     25625       220  POPC      H7S           -43.3289402084      -17.3763180228       -7.3517859465  MEMB      220             0.0000000000
     25626       220  POPC      C28           -44.7540834168      -18.7301671490       -8.2305210972  MEMB      220             0.0000000000
     25627       220  POPC      H8R           -45.6939491081      -18.8075272534       -8.8178794729  MEMB      220             0.0000000000
     25628       220  POPC      H8S           -45.0616213224      -19.0124579722       -7.2009321890  MEMB      220             0.0000000000
     25629       220  POPC      C29           -43.6387800603      -19.6452131009       -8.7923682292  MEMB      220             0.0000000000
     25630       220  POPC      H91           -43.3616333833      -19.4780492000       -9.8436756320  MEMB      220             0.0000000000
     25631       220  POPC      C210          -42.9652927779      -20.6232339755       -8.1308644156  MEMB      220             0.0000000000
     25632       220  POPC      H101          -42.0956907737      -21.0105774192       -8.6820064635  MEMB      220             0.0000000000
     25633       220  POPC      C211          -42.9886435622      -21.1269930391       -6.6986711515  MEMB      220             0.0000000000
     25634       220  POPC      H11R          -43.1479044737      -22.2239235996       -6.7741740624  MEMB      220             0.0000000000
     25635       220  POPC      H11S          -43.8246932460      -20.7567080937       -6.0676158782  MEMB      220             0.0000000000
     25636       220  POPC      C212          -41.7612565799      -20.7924414100       -5.9228460300  MEMB      220             0.0000000000
     25637       220  POPC      H12R          -41.7891778551      -19.7186112814       -5.6392441343  MEMB      220             0.0000000000
     25638       220  POPC      H12S          -40.8428436863      -20.9863233498       -6.5171927578  MEMB      220             0.0000000000
     25639       220  POPC      C213          -41.7426221974      -21.5891992915       -4.5725739235  MEMB      220             0.0000000000
     25640       220  POPC      H13R          -41.7131832982      -22.6738591204       -4.8112521906  MEMB      220             0.0000000000
     25641       220  POPC      H13S          -42.7347792055      -21.5506943970       -4.0741139111  MEMB      220             0.0000000000
     25642       220  POPC      C214          -40.5879347938      -21.3011086379       -3.6005478929  MEMB      220             0.0000000000
     25643       220  POPC      H14R          -39.6751904131      -21.4353411928       -4.2195799402  MEMB      220             0.0000000000
     25644       220  POPC      H14S          -40.4763990882      -21.9949440911       -2.7400402908  MEMB      220             0.0000000000
     25645       220  POPC      C215          -40.7046404363      -19.9317215008       -2.9578857172  MEMB      220             0.0000000000
     25646       220  POPC      H15R          -41.7096857234      -19.5125079412       -2.7377384240  MEMB      220             0.0000000000
     25647       220  POPC      H15S          -40.1973536926      -19.2331648149       -3.6571710418  MEMB      220             0.0000000000
     25648       220  POPC      C216          -39.9637108871      -19.9660135949       -1.5806436426  MEMB      220             0.0000000000
     25649       220  POPC      H16R          -40.0481292220      -18.8852352328       -1.3375132320  MEMB      220             0.0000000000
     25650       220  POPC      H16S          -38.9644688559      -20.3495391925       -1.8785446116  MEMB      220             0.0000000000
     25651       220  POPC      C217          -40.6334569510      -20.8004051874       -0.4615923423  MEMB      220             0.0000000000
     25652       220  POPC      H17R          -40.9050498463      -21.7955380363       -0.8742286766  MEMB      220             0.0000000000
     25653       220  POPC      H17S          -41.5188810472      -20.3220377030        0.0090563165  MEMB      220             0.0000000000
     25654       220  POPC      C218          -39.6440127531      -21.0883056511        0.7549763648  MEMB      220             0.0000000000
     25655       220  POPC      H18R          -39.3834060283      -20.0828811995        1.1493447440  MEMB      220             0.0000000000
     25656       220  POPC      H18S          -38.7775282404      -21.5994657529        0.2835509722  MEMB      220             0.0000000000
     25657       220  POPC      H18T          -39.9926511576      -21.7015077192        1.6133207602  MEMB      220             0.0000000000
     25658       220  POPC      C33           -40.4637193601      -20.2961695390      -13.1067674534  MEMB      220             0.0000000000
     25659       220  POPC      H3X           -40.4234512197      -19.3317393146      -13.6568346768  MEMB      220             0.0000000000
     25660       220  POPC      H3Y           -39.6611874944      -20.9804576091      -13.4560717699  MEMB      220             0.0000000000
     25661       220  POPC      C34           -40.2751872102      -19.8802942936      -11.6476956751  MEMB      220             0.0000000000
     25662       220  POPC      H4X           -40.3636506664      -20.8374117680      -11.0905409660  MEMB      220             0.0000000000
     25663       220  POPC      H4Y           -41.1251561903      -19.2399892874      -11.3285041248  MEMB      220             0.0000000000
     25664       220  POPC      C35           -38.8944208886      -19.1722109013      -11.4454159067  MEMB      220             0.0000000000
     25665       220  POPC      H5X           -38.8256137249      -18.3391529967      -12.1772636886  MEMB      220             0.0000000000
     25666       220  POPC      H5Y           -38.1648540130      -19.9556286246      -11.7425855070  MEMB      220             0.0000000000
     25667       220  POPC      C36           -38.5583519002      -18.6605997316      -10.0788183472  MEMB      220             0.0000000000
     25668       220  POPC      H6X           -37.4693627102      -18.4589986955       -9.9906110560  MEMB      220             0.0000000000
     25669       220  POPC      H6Y           -38.7325409540      -19.5196478842       -9.3961646346  MEMB      220             0.0000000000
     25670       220  POPC      C37           -39.4251183919      -17.4955379435       -9.6184918243  MEMB      220             0.0000000000
     25671       220  POPC      H7X           -40.4406085378      -17.9378405094       -9.5320671275  MEMB      220             0.0000000000
     25672       220  POPC      H7Y           -39.4450343834      -16.7754965332      -10.4643435977  MEMB      220             0.0000000000
     25673       220  POPC      C38           -38.9076467400      -16.8226734489       -8.3406314404  MEMB      220             0.0000000000
     25674       220  POPC      H8X           -39.6951013357      -16.0692695349       -8.1247174927  MEMB      220             0.0000000000
     25675       220  POPC      H8Y           -37.8670242401      -16.4597756032       -8.4810985100  MEMB      220             0.0000000000
     25676       220  POPC      C39           -38.8782578552      -17.7466279674       -7.1338412580  MEMB      220             0.0000000000
     25677       220  POPC      H9X           -38.1151293308      -18.5502341207       -7.2124105532  MEMB      220             0.0000000000
     25678       220  POPC      H9Y           -39.8747005857      -18.2121301962       -6.9765820795  MEMB      220             0.0000000000
     25679       220  POPC      C310          -38.5742018143      -16.9624448353       -5.8161480440  MEMB      220             0.0000000000
     25680       220  POPC      H10X          -37.6746908718      -16.3104472403       -5.8261533025  MEMB      220             0.0000000000
     25681       220  POPC      H10Y          -38.3939820287      -17.6581217636       -4.9688732408  MEMB      220             0.0000000000
     25682       220  POPC      C311          -39.6659663673      -15.9229889770       -5.4487864811  MEMB      220             0.0000000000
     25683       220  POPC      H11X          -40.6063504517      -16.5142791872       -5.4294270715  MEMB      220             0.0000000000
     25684       220  POPC      H11Y          -39.7688773286      -15.2001845277       -6.2862138865  MEMB      220             0.0000000000
     25685       220  POPC      C312          -39.5727594012      -15.2209539919       -4.0707180590  MEMB      220             0.0000000000
     25686       220  POPC      H12X          -40.4285828080      -14.5126118871       -4.0589412579  MEMB      220             0.0000000000
     25687       220  POPC      H12Y          -38.6141094722      -14.6598860317       -4.0480443347  MEMB      220             0.0000000000
     25688       220  POPC      C313          -39.7648652167      -16.2427417882       -2.8879670108  MEMB      220             0.0000000000
     25689       220  POPC      H13X          -39.0909666779      -17.1096401314       -3.0572866729  MEMB      220             0.0000000000
     25690       220  POPC      H13Y          -40.8368711927      -16.5343589568       -2.8971143212  MEMB      220             0.0000000000
     25691       220  POPC      C314          -39.3837439015      -15.6148699822       -1.5453299265  MEMB      220             0.0000000000
     25692       220  POPC      H14X          -38.7620934201      -14.7020904217       -1.6665959051  MEMB      220             0.0000000000
     25693       220  POPC      H14Y          -38.6424042221      -16.2903643425       -1.0673723980  MEMB      220             0.0000000000
     25694       220  POPC      C315          -40.5206584305      -15.4242459558       -0.5715704602  MEMB      220             0.0000000000
     25695       220  POPC      H15X          -41.3906034516      -14.8510647820       -0.9575493562  MEMB      220             0.0000000000
     25696       220  POPC      H15Y          -39.9962360323      -14.9262657133        0.2718254751  MEMB      220             0.0000000000
     25697       220  POPC      C316          -41.1080532106      -16.6147775470        0.2348031960  MEMB      220             0.0000000000
     25698       220  POPC      H16X          -41.9062184016      -17.1031039845       -0.3641875555  MEMB      220             0.0000000000
     25699       220  POPC      H16Y          -41.5367130663      -16.3080402009        1.2128028145  MEMB      220             0.0000000000
     25700       220  POPC      H16Z          -40.3387641016      -17.3504848543        0.5530013503  MEMB      220             0.0000000000
     25701       221  POPC      N             -20.0640273720       41.2768001752      -19.0819647206  MEMB      221             0.0000000000
     25702       221  POPC      C12           -19.1448434555       41.0839228917      -17.9265359747  MEMB      221             0.0000000000
     25703       221  POPC      H12A          -19.7043792409       41.0255637407      -17.0046281815  MEMB      221             0.0000000000
     25704       221  POPC      H12B          -18.4100584986       41.8665728377      -18.0446461215  MEMB      221             0.0000000000
     25705       221  POPC      C13           -21.1667652728       40.1263790691      -19.1389425469  MEMB      221             0.0000000000
     25706       221  POPC      H13A          -21.9071012736       40.5058552426      -19.8276372981  MEMB      221             0.0000000000
     25707       221  POPC      H13B          -20.8380010805       39.1814589407      -19.5456857862  MEMB      221             0.0000000000
     25708       221  POPC      H13C          -21.4979904625       40.0363809321      -18.1149356628  MEMB      221             0.0000000000
     25709       221  POPC      C14           -20.7109182500       42.6420373173      -18.8480831808  MEMB      221             0.0000000000
     25710       221  POPC      H14A          -21.0745127916       42.7081813605      -17.8332807329  MEMB      221             0.0000000000
     25711       221  POPC      H14B          -20.0137300100       43.4336288784      -19.0798397579  MEMB      221             0.0000000000
     25712       221  POPC      H14C          -21.6179364882       42.7165903638      -19.4295982352  MEMB      221             0.0000000000
     25713       221  POPC      C15           -19.3859295089       41.2021189359      -20.3643520568  MEMB      221             0.0000000000
     25714       221  POPC      H15A          -18.6696571329       42.0077311013      -20.4302532289  MEMB      221             0.0000000000
     25715       221  POPC      H15B          -20.0453244853       41.2940530599      -21.2147321625  MEMB      221             0.0000000000
     25716       221  POPC      H15C          -18.8006348482       40.2946357455      -20.3817963077  MEMB      221             0.0000000000
     25717       221  POPC      C11           -18.3530447995       39.7666221695      -17.8583388347  MEMB      221             0.0000000000
     25718       221  POPC      H11A          -19.1547953308       39.0041840963      -17.7573182018  MEMB      221             0.0000000000
     25719       221  POPC      H11B          -17.7847953956       39.8100368529      -16.9046465527  MEMB      221             0.0000000000
     25720       221  POPC      P             -16.1253742453       39.9677718953      -19.1843230798  MEMB      221             0.0000000000
     25721       221  POPC      O13           -15.8753559159       40.1950213498      -20.6581605034  MEMB      221             0.0000000000
     25722       221  POPC      O14           -15.3696785123       38.9344671642      -18.4474723955  MEMB      221             0.0000000000
     25723       221  POPC      O12           -17.5786829195       39.3367741378      -19.0095474493  MEMB      221             0.0000000000
     25724       221  POPC      O11           -16.1117994506       41.3783870973      -18.4822792612  MEMB      221             0.0000000000
     25725       221  POPC      C1            -15.0336304708       41.8962360378      -17.6967305461  MEMB      221             0.0000000000
     25726       221  POPC      HA            -14.6762259421       42.7510569612      -18.3098080080  MEMB      221             0.0000000000
     25727       221  POPC      HB            -14.2384851954       41.1267123346      -17.5972404746  MEMB      221             0.0000000000
     25728       221  POPC      C2            -15.5179686419       42.2935123011      -16.2727999286  MEMB      221             0.0000000000
     25729       221  POPC      HS            -15.7623434372       41.3446828253      -15.7490399755  MEMB      221             0.0000000000
     25730       221  POPC      O21           -16.6354121281       43.1069999329      -16.2990639357  MEMB      221             0.0000000000
     25731       221  POPC      C21           -17.4826419579       42.9836883314      -15.3202927574  MEMB      221             0.0000000000
     25732       221  POPC      O22           -17.5903696338       42.1021650576      -14.4967594800  MEMB      221             0.0000000000
     25733       221  POPC      C22           -18.3834982286       44.1971223111      -15.3676736615  MEMB      221             0.0000000000
     25734       221  POPC      H2R           -18.6669718511       44.3452430818      -16.4316398150  MEMB      221             0.0000000000
     25735       221  POPC      H2S           -17.8443603694       45.1210930230      -15.0677914993  MEMB      221             0.0000000000
     25736       221  POPC      C3            -14.3743309089       43.0300182828      -15.5717591455  MEMB      221             0.0000000000
     25737       221  POPC      HX            -14.0235730954       43.8814629656      -16.1933150650  MEMB      221             0.0000000000
     25738       221  POPC      HY            -13.5631285414       42.2722168504      -15.6165772148  MEMB      221             0.0000000000
     25739       221  POPC      O31           -14.7935844411       43.6119609889      -14.2790365750  MEMB      221             0.0000000000
     25740       221  POPC      C31           -14.4157726359       42.9911599827      -13.1988871614  MEMB      221             0.0000000000
     25741       221  POPC      O32           -13.6548277544       42.0369103378      -13.1224542268  MEMB      221             0.0000000000
     25742       221  POPC      C32           -15.0732594821       43.6664590325      -11.9791522975  MEMB      221             0.0000000000
     25743       221  POPC      H2X           -15.9247772733       44.2924059990      -12.3218307284  MEMB      221             0.0000000000
     25744       221  POPC      H2Y           -14.3270658177       44.2946200359      -11.4472405574  MEMB      221             0.0000000000
     25745       221  POPC      C23           -19.7996716819       44.0329806972      -14.5603181087  MEMB      221             0.0000000000
     25746       221  POPC      H3R           -20.1341327465       42.9833472502      -14.7042848950  MEMB      221             0.0000000000
     25747       221  POPC      H3S           -20.5936251523       44.7041745590      -14.9520553274  MEMB      221             0.0000000000
     25748       221  POPC      C24           -19.6242136389       44.1867437000      -13.0416846679  MEMB      221             0.0000000000
     25749       221  POPC      H4R           -19.7990858882       45.2298658844      -12.7016299090  MEMB      221             0.0000000000
     25750       221  POPC      H4S           -18.6286649391       43.9935996863      -12.5879239766  MEMB      221             0.0000000000
     25751       221  POPC      C25           -20.5876185652       43.3739396001      -12.1989298740  MEMB      221             0.0000000000
     25752       221  POPC      H5R           -20.5223260041       42.3275544527      -12.5665382949  MEMB      221             0.0000000000
     25753       221  POPC      H5S           -21.5929003818       43.7492679095      -12.4867804219  MEMB      221             0.0000000000
     25754       221  POPC      C26           -20.5305952211       43.2832760692      -10.6753524189  MEMB      221             0.0000000000
     25755       221  POPC      H6R           -20.6896159439       44.3614556795      -10.4595681731  MEMB      221             0.0000000000
     25756       221  POPC      H6S           -19.5537657903       43.0046352048      -10.2253702589  MEMB      221             0.0000000000
     25757       221  POPC      C27           -21.6388507902       42.3953118171      -10.0344385613  MEMB      221             0.0000000000
     25758       221  POPC      H7R           -22.5794271347       42.9056510463      -10.3330875272  MEMB      221             0.0000000000
     25759       221  POPC      H7S           -21.4789433152       42.4349354585       -8.9357203282  MEMB      221             0.0000000000
     25760       221  POPC      C28           -21.7143258091       40.8713584719      -10.3275367849  MEMB      221             0.0000000000
     25761       221  POPC      H8R           -22.0769583723       40.7023314991      -11.3639964650  MEMB      221             0.0000000000
     25762       221  POPC      H8S           -22.4793835207       40.4598685137       -9.6349448668  MEMB      221             0.0000000000
     25763       221  POPC      C29           -20.3521609406       40.1793885694      -10.1024412166  MEMB      221             0.0000000000
     25764       221  POPC      H91           -19.5883355301       40.7093891865      -10.6903781600  MEMB      221             0.0000000000
     25765       221  POPC      C210          -20.0467470942       39.1103455370       -9.2623031350  MEMB      221             0.0000000000
     25766       221  POPC      H101          -18.9702264385       38.8885068766       -9.2188239011  MEMB      221             0.0000000000
     25767       221  POPC      C211          -21.0873059028       38.3776956219       -8.3927923681  MEMB      221             0.0000000000
     25768       221  POPC      H11R          -20.8493319012       37.2976167546       -8.2873448618  MEMB      221             0.0000000000
     25769       221  POPC      H11S          -22.0742300967       38.4084720082       -8.9020606105  MEMB      221             0.0000000000
     25770       221  POPC      C212          -21.0594032574       38.8065921220       -6.9201685633  MEMB      221             0.0000000000
     25771       221  POPC      H12R          -20.1956647522       38.5543167119       -6.2685284643  MEMB      221             0.0000000000
     25772       221  POPC      H12S          -21.9109756916       38.5815007850       -6.2430577106  MEMB      221             0.0000000000
     25773       221  POPC      C213          -21.2515196508       40.3020014176       -6.6787626817  MEMB      221             0.0000000000
     25774       221  POPC      H13R          -21.9920733993       40.6550390261       -7.4279391944  MEMB      221             0.0000000000
     25775       221  POPC      H13S          -20.3104401935       40.7913305027       -7.0092892286  MEMB      221             0.0000000000
     25776       221  POPC      C214          -21.4615170691       40.7953381550       -5.1401872641  MEMB      221             0.0000000000
     25777       221  POPC      H14R          -22.2686774386       40.1715851461       -4.7000220895  MEMB      221             0.0000000000
     25778       221  POPC      H14S          -21.7052643297       41.8752647357       -5.0470911882  MEMB      221             0.0000000000
     25779       221  POPC      C215          -20.1789985155       40.4688818614       -4.2310696781  MEMB      221             0.0000000000
     25780       221  POPC      H15R          -19.3216996894       41.1290122673       -4.4832350518  MEMB      221             0.0000000000
     25781       221  POPC      H15S          -19.9488861973       39.4100528909       -4.4765294363  MEMB      221             0.0000000000
     25782       221  POPC      C216          -20.4667202088       40.4089970825       -2.6888473470  MEMB      221             0.0000000000
     25783       221  POPC      H16R          -21.3302177974       39.7431116767       -2.4760346100  MEMB      221             0.0000000000
     25784       221  POPC      H16S          -20.7646258910       41.3838168151       -2.2469200130  MEMB      221             0.0000000000
     25785       221  POPC      C217          -19.2554010905       39.7974059082       -1.8695667177  MEMB      221             0.0000000000
     25786       221  POPC      H17R          -18.3970841054       40.4992893398       -1.7990510584  MEMB      221             0.0000000000
     25787       221  POPC      H17S          -18.9870607188       38.8983993248       -2.4646319701  MEMB      221             0.0000000000
     25788       221  POPC      C218          -19.5651247400       39.3313590042       -0.4502010175  MEMB      221             0.0000000000
     25789       221  POPC      H18R          -18.6826110963       38.9332995146        0.0948114328  MEMB      221             0.0000000000
     25790       221  POPC      H18S          -20.3961942929       38.6049221279       -0.3239742112  MEMB      221             0.0000000000
     25791       221  POPC      H18T          -19.9428878048       40.2373367980        0.0702027099  MEMB      221             0.0000000000
     25792       221  POPC      C33           -15.7784029037       42.6861798064      -11.0374321130  MEMB      221             0.0000000000
     25793       221  POPC      H3X           -15.0206194371       42.1555459515      -10.4221987591  MEMB      221             0.0000000000
     25794       221  POPC      H3Y           -16.1505073697       41.8471582598      -11.6634530836  MEMB      221             0.0000000000
     25795       221  POPC      C34           -16.7451389054       43.2850041101      -10.1526777249  MEMB      221             0.0000000000
     25796       221  POPC      H4X           -17.2082402587       42.4749903926       -9.5495725196  MEMB      221             0.0000000000
     25797       221  POPC      H4Y           -17.5951385955       43.6928611165      -10.7404486057  MEMB      221             0.0000000000
     25798       221  POPC      C35           -16.0786540635       44.3467762323       -9.2824992543  MEMB      221             0.0000000000
     25799       221  POPC      H5X           -15.6559182260       45.1767228964       -9.8881427420  MEMB      221             0.0000000000
     25800       221  POPC      H5Y           -15.1907041330       43.9643984598       -8.7350930187  MEMB      221             0.0000000000
     25801       221  POPC      C36           -16.9387169954       44.9144591141       -8.1313914363  MEMB      221             0.0000000000
     25802       221  POPC      H6X           -17.5113572431       45.7455663857       -8.5957875331  MEMB      221             0.0000000000
     25803       221  POPC      H6Y           -16.3022785983       45.3957950396       -7.3583555278  MEMB      221             0.0000000000
     25804       221  POPC      C37           -18.0058647168       43.9115892088       -7.4674431667  MEMB      221             0.0000000000
     25805       221  POPC      H7X           -18.8463821144       43.5304000627       -8.0859459842  MEMB      221             0.0000000000
     25806       221  POPC      H7Y           -18.3950836264       44.4078412712       -6.5528045618  MEMB      221             0.0000000000
     25807       221  POPC      C38           -17.3754456488       42.6332556531       -7.0122990498  MEMB      221             0.0000000000
     25808       221  POPC      H8X           -16.5909351817       42.2523224178       -7.7005974926  MEMB      221             0.0000000000
     25809       221  POPC      H8Y           -18.1063340610       41.7976732367       -6.9684224911  MEMB      221             0.0000000000
     25810       221  POPC      C39           -16.8164994382       42.8199526612       -5.5661589340  MEMB      221             0.0000000000
     25811       221  POPC      H9X           -17.5750329810       43.2684324104       -4.8895392810  MEMB      221             0.0000000000
     25812       221  POPC      H9Y           -15.9890198639       43.5452297283       -5.7196898152  MEMB      221             0.0000000000
     25813       221  POPC      C310          -16.1710032743       41.5026963508       -5.0453242055  MEMB      221             0.0000000000
     25814       221  POPC      H10X          -15.2908107700       41.2908493783       -5.6892992977  MEMB      221             0.0000000000
     25815       221  POPC      H10Y          -16.9555039922       40.7204522704       -5.1288346186  MEMB      221             0.0000000000
     25816       221  POPC      C311          -15.7458868691       41.5632974837       -3.5957458511  MEMB      221             0.0000000000
     25817       221  POPC      H11X          -15.9689495536       40.6798144194       -2.9601187932  MEMB      221             0.0000000000
     25818       221  POPC      H11Y          -16.4135642231       42.3514816392       -3.1867312023  MEMB      221             0.0000000000
     25819       221  POPC      C312          -14.2855266943       42.0791363753       -3.4324355079  MEMB      221             0.0000000000
     25820       221  POPC      H12X          -14.3274664790       43.0737280966       -3.9257399856  MEMB      221             0.0000000000
     25821       221  POPC      H12Y          -13.6269629382       41.3144497792       -3.8970522762  MEMB      221             0.0000000000
     25822       221  POPC      C313          -13.8772267106       42.3335078101       -2.0123979148  MEMB      221             0.0000000000
     25823       221  POPC      H13X          -14.5095803046       43.1704646493       -1.6464006665  MEMB      221             0.0000000000
     25824       221  POPC      H13Y          -12.8186168018       42.6685521820       -2.0499667836  MEMB      221             0.0000000000
     25825       221  POPC      C314          -14.0463910888       41.1260892473       -1.0280401465  MEMB      221             0.0000000000
     25826       221  POPC      H14X          -13.5419712562       40.2528774177       -1.4942845836  MEMB      221             0.0000000000
     25827       221  POPC      H14Y          -15.1388469922       40.9277372003       -0.9890863745  MEMB      221             0.0000000000
     25828       221  POPC      C315          -13.6127641818       41.3874689117        0.4870216557  MEMB      221             0.0000000000
     25829       221  POPC      H15X          -14.0893081122       42.3784594088        0.6456571882  MEMB      221             0.0000000000
     25830       221  POPC      H15Y          -12.5233333399       41.5955798477        0.5514510524  MEMB      221             0.0000000000
     25831       221  POPC      C316          -14.0268811840       40.4090264497        1.5657722549  MEMB      221             0.0000000000
     25832       221  POPC      H16X          -15.1326388892       40.3278778116        1.6367358488  MEMB      221             0.0000000000
     25833       221  POPC      H16Y          -13.6689335839       40.8773782339        2.5074938696  MEMB      221             0.0000000000
     25834       221  POPC      H16Z          -13.6420513631       39.3708766124        1.4737291723  MEMB      221             0.0000000000
     25835       222  POPC      N               3.1878094249      -45.2124398246      -18.6364018193  MEMB      222             0.0000000000
     25836       222  POPC      C12             3.8518336027      -46.2098285616      -17.7465770064  MEMB      222             0.0000000000
     25837       222  POPC      H12A            3.5632327208      -47.1837268569      -18.1134988769  MEMB      222             0.0000000000
     25838       222  POPC      H12B            3.3666052236      -46.2150598364      -16.7817317803  MEMB      222             0.0000000000
     25839       222  POPC      C13             3.0975571912      -45.5973969582      -20.0944856374  MEMB      222             0.0000000000
     25840       222  POPC      H13A            2.7941322140      -44.7840689508      -20.7370048633  MEMB      222             0.0000000000
     25841       222  POPC      H13B            4.0418564241      -45.9651497842      -20.4679244834  MEMB      222             0.0000000000
     25842       222  POPC      H13C            2.3466873250      -46.3672108500      -20.1943915704  MEMB      222             0.0000000000
     25843       222  POPC      C14             1.7478954501      -44.9896424508      -18.1524797941  MEMB      222             0.0000000000
     25844       222  POPC      H14A            1.8874416434      -44.5535511317      -17.1743432290  MEMB      222             0.0000000000
     25845       222  POPC      H14B            1.2352155842      -44.2812775941      -18.7863395072  MEMB      222             0.0000000000
     25846       222  POPC      H14C            1.1113669103      -45.8619633902      -18.1355198582  MEMB      222             0.0000000000
     25847       222  POPC      C15             3.9138340977      -43.9001684083      -18.5288516315  MEMB      222             0.0000000000
     25848       222  POPC      H15A            4.8270334329      -44.0260597541      -19.0915401240  MEMB      222             0.0000000000
     25849       222  POPC      H15B            4.0214949581      -43.5088687558      -17.5280050016  MEMB      222             0.0000000000
     25850       222  POPC      H15C            3.3647328848      -43.1237056524      -19.0407048028  MEMB      222             0.0000000000
     25851       222  POPC      C11             5.4118931729      -46.2599262432      -17.6756302279  MEMB      222             0.0000000000
     25852       222  POPC      H11A            5.8290865952      -47.1219069488      -17.1123719182  MEMB      222             0.0000000000
     25853       222  POPC      H11B            5.6364776286      -45.3633011167      -17.0592324242  MEMB      222             0.0000000000
     25854       222  POPC      P               6.1104719762      -47.5337687870      -19.7346231208  MEMB      222             0.0000000000
     25855       222  POPC      O13             7.4842545435      -47.9123857328      -19.4121457026  MEMB      222             0.0000000000
     25856       222  POPC      O14             5.6488530117      -47.4762996898      -21.1466767709  MEMB      222             0.0000000000
     25857       222  POPC      O12             5.9234717390      -46.1736148081      -18.9835035578  MEMB      222             0.0000000000
     25858       222  POPC      O11             5.1818178215      -48.4609402345      -18.8886247737  MEMB      222             0.0000000000
     25859       222  POPC      C1              4.9756277101      -49.8064538669      -19.2835034107  MEMB      222             0.0000000000
     25860       222  POPC      HA              5.9238351778      -50.3642980313      -19.4385302472  MEMB      222             0.0000000000
     25861       222  POPC      HB              4.5466818581      -49.8760804197      -20.3059899428  MEMB      222             0.0000000000
     25862       222  POPC      C2              4.1882257834      -50.7071842314      -18.2298967636  MEMB      222             0.0000000000
     25863       222  POPC      HS              3.7522085502      -51.5484952704      -18.8099021201  MEMB      222             0.0000000000
     25864       222  POPC      O21             3.1531140206      -50.0000843817      -17.6008823359  MEMB      222             0.0000000000
     25865       222  POPC      C21             1.9638497411      -49.9270899743      -18.2149675331  MEMB      222             0.0000000000
     25866       222  POPC      O22             1.7792306037      -50.3093965066      -19.3472847908  MEMB      222             0.0000000000
     25867       222  POPC      C22             0.9274277487      -49.1093999153      -17.3689223623  MEMB      222             0.0000000000
     25868       222  POPC      H2R             0.1195255483      -49.8306886461      -17.1212161382  MEMB      222             0.0000000000
     25869       222  POPC      H2S             0.6326782384      -48.3075897262      -18.0792349835  MEMB      222             0.0000000000
     25870       222  POPC      C3              5.0932273396      -51.3740792603      -17.1521747383  MEMB      222             0.0000000000
     25871       222  POPC      HX              5.7049786326      -52.1090611055      -17.7177565470  MEMB      222             0.0000000000
     25872       222  POPC      HY              4.4943970931      -52.0074022386      -16.4632443073  MEMB      222             0.0000000000
     25873       222  POPC      O31             5.9058005810      -50.4491840962      -16.4425654191  MEMB      222             0.0000000000
     25874       222  POPC      C31             5.2933466276      -49.8201179151      -15.3831717458  MEMB      222             0.0000000000
     25875       222  POPC      O32             4.1357456777      -50.0561359579      -15.1193071090  MEMB      222             0.0000000000
     25876       222  POPC      C32             6.1795857740      -48.8340887027      -14.6676931924  MEMB      222             0.0000000000
     25877       222  POPC      H2X             6.8018765210      -48.2203274054      -15.3535299781  MEMB      222             0.0000000000
     25878       222  POPC      H2Y             6.8399257968      -49.3507352991      -13.9387564674  MEMB      222             0.0000000000
     25879       222  POPC      C23             1.4919806415      -48.4685296851      -16.0432505077  MEMB      222             0.0000000000
     25880       222  POPC      H3R             2.4133298547      -47.9042502929      -16.3021433620  MEMB      222             0.0000000000
     25881       222  POPC      H3S             1.7649951684      -49.3524856183      -15.4281035130  MEMB      222             0.0000000000
     25882       222  POPC      C24             0.5143945512      -47.7134022070      -15.2087549013  MEMB      222             0.0000000000
     25883       222  POPC      H4R            -0.2339167145      -48.3913345283      -14.7453338750  MEMB      222             0.0000000000
     25884       222  POPC      H4S             0.0561883350      -46.8923551136      -15.8005742944  MEMB      222             0.0000000000
     25885       222  POPC      C25             1.1084289647      -46.7163241465      -14.2200571526  MEMB      222             0.0000000000
     25886       222  POPC      H5R             0.6667558929      -45.7090535607      -14.3770658608  MEMB      222             0.0000000000
     25887       222  POPC      H5S             2.1593565734      -46.5245956497      -14.5252006566  MEMB      222             0.0000000000
     25888       222  POPC      C26             1.0161238016      -47.0478023500      -12.7080069499  MEMB      222             0.0000000000
     25889       222  POPC      H6R            -0.0230144800      -46.9019230689      -12.3429973547  MEMB      222             0.0000000000
     25890       222  POPC      H6S             1.5302957506      -46.2353850491      -12.1512968477  MEMB      222             0.0000000000
     25891       222  POPC      C27             1.5591251015      -48.4687792043      -12.3619575228  MEMB      222             0.0000000000
     25892       222  POPC      H7R             2.4950064886      -48.7186695164      -12.9060182406  MEMB      222             0.0000000000
     25893       222  POPC      H7S             0.8601434212      -49.0960334167      -12.9555049475  MEMB      222             0.0000000000
     25894       222  POPC      C28             1.7557166536      -48.8266151637      -10.8239622289  MEMB      222             0.0000000000
     25895       222  POPC      H8R             1.9472548013      -49.9209080974      -10.8114318806  MEMB      222             0.0000000000
     25896       222  POPC      H8S             0.8416844952      -48.8301212352      -10.1924135776  MEMB      222             0.0000000000
     25897       222  POPC      C29             2.8475154979      -47.9513084862      -10.1972649983  MEMB      222             0.0000000000
     25898       222  POPC      H91             2.6440422497      -46.8741114077      -10.1064621261  MEMB      222             0.0000000000
     25899       222  POPC      C210            3.9934908622      -48.5684115246       -9.8216437133  MEMB      222             0.0000000000
     25900       222  POPC      H101            4.7726459060      -47.9570912625       -9.3428900238  MEMB      222             0.0000000000
     25901       222  POPC      C211            4.3658466122      -50.0435063854       -9.8483756826  MEMB      222             0.0000000000
     25902       222  POPC      H11R            4.5691021216      -50.4156962618      -10.8752555202  MEMB      222             0.0000000000
     25903       222  POPC      H11S            3.5380267880      -50.6773704423       -9.4646411450  MEMB      222             0.0000000000
     25904       222  POPC      C212            5.6150140624      -50.6380196578       -9.1580588007  MEMB      222             0.0000000000
     25905       222  POPC      H12R            6.4097152001      -50.5492767866       -9.9293528591  MEMB      222             0.0000000000
     25906       222  POPC      H12S            5.3492635318      -51.7141856722       -9.0834632988  MEMB      222             0.0000000000
     25907       222  POPC      C213            5.7959433495      -50.1268634111       -7.7239907462  MEMB      222             0.0000000000
     25908       222  POPC      H13R            5.8067485177      -49.0165388897       -7.7611872192  MEMB      222             0.0000000000
     25909       222  POPC      H13S            6.7443743933      -50.3711448475       -7.1994661492  MEMB      222             0.0000000000
     25910       222  POPC      C214            4.6312759399      -50.4206669400       -6.7972209361  MEMB      222             0.0000000000
     25911       222  POPC      H14R            4.7157521660      -51.4886497765       -6.5029466370  MEMB      222             0.0000000000
     25912       222  POPC      H14S            3.5928972978      -50.2176387918       -7.1361461342  MEMB      222             0.0000000000
     25913       222  POPC      C215            4.6983831603      -49.6242752128       -5.4507518131  MEMB      222             0.0000000000
     25914       222  POPC      H15R            3.7980083917      -49.8172132533       -4.8291237637  MEMB      222             0.0000000000
     25915       222  POPC      H15S            4.4885914918      -48.5416475049       -5.5857548862  MEMB      222             0.0000000000
     25916       222  POPC      C216            5.9512688774      -49.9223872569       -4.6197249265  MEMB      222             0.0000000000
     25917       222  POPC      H16R            6.8177207453      -49.4956258292       -5.1687748215  MEMB      222             0.0000000000
     25918       222  POPC      H16S            6.0225069552      -51.0287595004       -4.5477070440  MEMB      222             0.0000000000
     25919       222  POPC      C217            6.0226845996      -49.3223440882       -3.2373589857  MEMB      222             0.0000000000
     25920       222  POPC      H17R            5.8215926709      -48.2303801914       -3.2760613990  MEMB      222             0.0000000000
     25921       222  POPC      H17S            7.0554309821      -49.4461043396       -2.8469244184  MEMB      222             0.0000000000
     25922       222  POPC      C218            5.1124270460      -50.0162522593       -2.1446572613  MEMB      222             0.0000000000
     25923       222  POPC      H18R            5.4111328503      -51.0825516886       -2.0546484526  MEMB      222             0.0000000000
     25924       222  POPC      H18S            4.0192709370      -49.9998689887       -2.3422988282  MEMB      222             0.0000000000
     25925       222  POPC      H18T            5.1463935252      -49.4716553107       -1.1768850164  MEMB      222             0.0000000000
     25926       222  POPC      C33             5.2925131058      -47.7447967665      -13.8809819396  MEMB      222             0.0000000000
     25927       222  POPC      H3X             4.7677036950      -48.1374152177      -12.9839051149  MEMB      222             0.0000000000
     25928       222  POPC      H3Y             4.4912667451      -47.4153991659      -14.5765550719  MEMB      222             0.0000000000
     25929       222  POPC      C34             6.0509452358      -46.4796929093      -13.3623118817  MEMB      222             0.0000000000
     25930       222  POPC      H4X             5.3165562945      -45.6463814608      -13.3381050860  MEMB      222             0.0000000000
     25931       222  POPC      H4Y             6.8408688186      -46.1812086677      -14.0842878330  MEMB      222             0.0000000000
     25932       222  POPC      C35             6.6641747650      -46.6060835691      -12.0076078777  MEMB      222             0.0000000000
     25933       222  POPC      H5X             7.2932997273      -47.5216207840      -12.0253390497  MEMB      222             0.0000000000
     25934       222  POPC      H5Y             5.9508098414      -46.6218467321      -11.1560311219  MEMB      222             0.0000000000
     25935       222  POPC      C36             7.6080041743      -45.3968283256      -11.6843710402  MEMB      222             0.0000000000
     25936       222  POPC      H6X             6.9828646588      -44.4801529472      -11.6275593262  MEMB      222             0.0000000000
     25937       222  POPC      H6Y             8.4248259224      -45.2161012034      -12.4154398246  MEMB      222             0.0000000000
     25938       222  POPC      C37             8.3298460690      -45.7313219944      -10.3378007627  MEMB      222             0.0000000000
     25939       222  POPC      H7X             9.2558776379      -45.1177567246      -10.3197932365  MEMB      222             0.0000000000
     25940       222  POPC      H7Y             8.6066076624      -46.8066688686      -10.3010123297  MEMB      222             0.0000000000
     25941       222  POPC      C38             7.3579951926      -45.5252549786       -9.1306535139  MEMB      222             0.0000000000
     25942       222  POPC      H8X             6.4942811370      -46.2217745422       -9.1870418396  MEMB      222             0.0000000000
     25943       222  POPC      H8Y             6.9590286262      -44.4897712340       -9.1846883189  MEMB      222             0.0000000000
     25944       222  POPC      C39             7.9636939827      -45.6675471073       -7.7221258340  MEMB      222             0.0000000000
     25945       222  POPC      H9X             8.4108044106      -44.7318779715       -7.3234576932  MEMB      222             0.0000000000
     25946       222  POPC      H9Y             8.7631531725      -46.4378598949       -7.6796551874  MEMB      222             0.0000000000
     25947       222  POPC      C310            6.9191496081      -46.1678035768       -6.6126306781  MEMB      222             0.0000000000
     25948       222  POPC      H10X            7.6338300909      -46.3401081413       -5.7796453676  MEMB      222             0.0000000000
     25949       222  POPC      H10Y            6.4059877715      -47.0437012254       -7.0640606867  MEMB      222             0.0000000000
     25950       222  POPC      C311            5.9929020274      -45.0493135477       -6.1833832062  MEMB      222             0.0000000000
     25951       222  POPC      H11X            5.4635179402      -44.6201088169       -7.0607977138  MEMB      222             0.0000000000
     25952       222  POPC      H11Y            6.5280104048      -44.3029811232       -5.5581088885  MEMB      222             0.0000000000
     25953       222  POPC      C312            5.0287940421      -45.6896306557       -5.2281227811  MEMB      222             0.0000000000
     25954       222  POPC      H12X            5.4749743240      -46.4884853501       -4.5979842560  MEMB      222             0.0000000000
     25955       222  POPC      H12Y            4.1276815733      -46.0613368282       -5.7611820460  MEMB      222             0.0000000000
     25956       222  POPC      C313            4.2391491745      -44.6192198092       -4.3821695180  MEMB      222             0.0000000000
     25957       222  POPC      H13X            3.6176714128      -43.8780634269       -4.9287714853  MEMB      222             0.0000000000
     25958       222  POPC      H13Y            5.0533031625      -44.1387199888       -3.7985650709  MEMB      222             0.0000000000
     25959       222  POPC      C314            3.3392772081      -45.1796153067       -3.3156672457  MEMB      222             0.0000000000
     25960       222  POPC      H14X            4.0115639119      -45.7958445949       -2.6811485162  MEMB      222             0.0000000000
     25961       222  POPC      H14Y            2.5222255254      -45.7451547384       -3.8125704084  MEMB      222             0.0000000000
     25962       222  POPC      C315            2.6865692223      -44.0784575395       -2.4711899157  MEMB      222             0.0000000000
     25963       222  POPC      H15X            2.0380772705      -43.4412388984       -3.1097275878  MEMB      222             0.0000000000
     25964       222  POPC      H15Y            3.4343998010      -43.3118194697       -2.1756632332  MEMB      222             0.0000000000
     25965       222  POPC      C316            1.8493618097      -44.5214472570       -1.3896015806  MEMB      222             0.0000000000
     25966       222  POPC      H16X            1.4091494827      -43.6507539895       -0.8581627746  MEMB      222             0.0000000000
     25967       222  POPC      H16Y            2.5268157255      -44.9596006838       -0.6257965526  MEMB      222             0.0000000000
     25968       222  POPC      H16Z            1.1144095487      -45.2973540293       -1.6931386134  MEMB      222             0.0000000000
     25969       223  POPC      N              49.0560550674       -6.0452868354      -19.9847479585  MEMB      223             0.0000000000
     25970       223  POPC      C12            48.0654250717       -7.0991262546      -20.3268300548  MEMB      223             0.0000000000
     25971       223  POPC      H12A           47.8736740322       -6.9471048762      -21.3787430087  MEMB      223             0.0000000000
     25972       223  POPC      H12B           47.1739185483       -6.7483083387      -19.8282891820  MEMB      223             0.0000000000
     25973       223  POPC      C13            48.5372009428       -4.7671937283      -20.6390647057  MEMB      223             0.0000000000
     25974       223  POPC      H13A           47.5147811998       -4.6364809060      -20.3166177929  MEMB      223             0.0000000000
     25975       223  POPC      H13B           49.1434420719       -4.0149557504      -20.1563535259  MEMB      223             0.0000000000
     25976       223  POPC      H13C           48.5294700771       -4.7370076426      -21.7186151786  MEMB      223             0.0000000000
     25977       223  POPC      C14            49.2370119097       -5.9987081723      -18.4877613304  MEMB      223             0.0000000000
     25978       223  POPC      H14A           49.4635392787       -7.0194754332      -18.2173551145  MEMB      223             0.0000000000
     25979       223  POPC      H14B           49.9313608218       -5.2386887610      -18.1611883571  MEMB      223             0.0000000000
     25980       223  POPC      H14C           48.2476163740       -5.7496567322      -18.1335442449  MEMB      223             0.0000000000
     25981       223  POPC      C15            50.3725034055       -6.3864861595      -20.6570835485  MEMB      223             0.0000000000
     25982       223  POPC      H15A           50.3272693836       -6.8053726001      -21.6515119441  MEMB      223             0.0000000000
     25983       223  POPC      H15B           50.6783158314       -7.3060953698      -20.1804308947  MEMB      223             0.0000000000
     25984       223  POPC      H15C           51.1885784663       -5.7035525046      -20.4726295708  MEMB      223             0.0000000000
     25985       223  POPC      C11            48.3519248820       -8.6281181156      -19.9677713599  MEMB      223             0.0000000000
     25986       223  POPC      H11A           49.3254656408       -8.8443663253      -20.4574406205  MEMB      223             0.0000000000
     25987       223  POPC      H11B           47.6161216741       -9.2406984121      -20.5313846995  MEMB      223             0.0000000000
     25988       223  POPC      P              46.8682014094       -8.8848161992      -17.8149181029  MEMB      223             0.0000000000
     25989       223  POPC      O13            45.8299888129       -9.5966070752      -18.6363324477  MEMB      223             0.0000000000
     25990       223  POPC      O14            46.6831787590       -7.4890146768      -17.3587607231  MEMB      223             0.0000000000
     25991       223  POPC      O12            48.3601062890       -8.9004461694      -18.5865456435  MEMB      223             0.0000000000
     25992       223  POPC      O11            47.1646291093       -9.7848471930      -16.5401841250  MEMB      223             0.0000000000
     25993       223  POPC      C1             48.0321123654      -10.9188519454      -16.6356666494  MEMB      223             0.0000000000
     25994       223  POPC      HA             48.4449998276      -11.0067615447      -17.6633422605  MEMB      223             0.0000000000
     25995       223  POPC      HB             47.4399126899      -11.8544008847      -16.5441851682  MEMB      223             0.0000000000
     25996       223  POPC      C2             49.2681021196      -10.7932577266      -15.7157377114  MEMB      223             0.0000000000
     25997       223  POPC      HS             49.7160977488      -11.8022972986      -15.8400756213  MEMB      223             0.0000000000
     25998       223  POPC      O21            48.9724583449      -10.5944827961      -14.3298715208  MEMB      223             0.0000000000
     25999       223  POPC      C21            48.1046841209      -11.2735464320      -13.7499664267  MEMB      223             0.0000000000
     26000       223  POPC      O22            47.2744259818      -12.1303789029      -14.1349778174  MEMB      223             0.0000000000
     26001       223  POPC      C22            48.2016837785      -10.9968489855      -12.2624571159  MEMB      223             0.0000000000
     26002       223  POPC      H2R            48.5214587646       -9.9358404372      -12.1829231607  MEMB      223             0.0000000000
     26003       223  POPC      H2S            48.9935862941      -11.6341433988      -11.8140518572  MEMB      223             0.0000000000
     26004       223  POPC      C3             50.2560281549       -9.6450258055      -16.1951917888  MEMB      223             0.0000000000
     26005       223  POPC      HX             50.4457965021       -9.8787716046      -17.2646176854  MEMB      223             0.0000000000
     26006       223  POPC      HY             51.1878969022       -9.6493659189      -15.5902766749  MEMB      223             0.0000000000
     26007       223  POPC      O31            49.6735201507       -8.2932201675      -16.1095283026  MEMB      223             0.0000000000
     26008       223  POPC      C31            49.9466900311       -7.7023175934      -14.9456078461  MEMB      223             0.0000000000
     26009       223  POPC      O32            50.5911508386       -8.2293359410      -14.0593868770  MEMB      223             0.0000000000
     26010       223  POPC      C32            49.3002616432       -6.2810971620      -14.8666829411  MEMB      223             0.0000000000
     26011       223  POPC      H2X            48.2915999330       -6.2302968855      -15.3296535447  MEMB      223             0.0000000000
     26012       223  POPC      H2Y            50.0377626574       -5.5808852502      -15.3140270017  MEMB      223             0.0000000000
     26013       223  POPC      C23            46.9080956766      -11.4098833517      -11.5809281581  MEMB      223             0.0000000000
     26014       223  POPC      H3R            46.8042472095      -12.5159251145      -11.5665012079  MEMB      223             0.0000000000
     26015       223  POPC      H3S            46.0354866037      -10.9131637696      -12.0564743719  MEMB      223             0.0000000000
     26016       223  POPC      C24            46.8077604122      -11.0918459395      -10.0744098784  MEMB      223             0.0000000000
     26017       223  POPC      H4R            46.6590158264       -9.9981978619      -10.2014125074  MEMB      223             0.0000000000
     26018       223  POPC      H4S            47.7808134353      -11.3330310616       -9.5955373220  MEMB      223             0.0000000000
     26019       223  POPC      C25            45.5717888377      -11.6479393468       -9.2765072179  MEMB      223             0.0000000000
     26020       223  POPC      H5R            45.5544208216      -12.7579928122       -9.3189399150  MEMB      223             0.0000000000
     26021       223  POPC      H5S            44.6740393349      -11.3029828890       -9.8327197744  MEMB      223             0.0000000000
     26022       223  POPC      C26            45.2939904023      -11.1222983556       -7.8068887691  MEMB      223             0.0000000000
     26023       223  POPC      H6R            44.2763009771      -11.4969288999       -7.5654749736  MEMB      223             0.0000000000
     26024       223  POPC      H6S            45.1934391303      -10.0160412849       -7.8270335990  MEMB      223             0.0000000000
     26025       223  POPC      C27            46.2252561895      -11.4121315587       -6.7236382201  MEMB      223             0.0000000000
     26026       223  POPC      H7R            47.1387083240      -10.7841894474       -6.6487058268  MEMB      223             0.0000000000
     26027       223  POPC      H7S            46.6174297492      -12.3875679197       -7.0828665042  MEMB      223             0.0000000000
     26028       223  POPC      C28            45.4983816596      -11.7625611921       -5.3730218684  MEMB      223             0.0000000000
     26029       223  POPC      H8R            46.2682811086      -12.1692892971       -4.6829871913  MEMB      223             0.0000000000
     26030       223  POPC      H8S            44.7621247960      -12.5754756265       -5.5502696952  MEMB      223             0.0000000000
     26031       223  POPC      C29            44.8667608734      -10.4969589508       -4.8878914172  MEMB      223             0.0000000000
     26032       223  POPC      H91            45.5478004374       -9.6491831912       -5.0536069798  MEMB      223             0.0000000000
     26033       223  POPC      C210           43.7003608308      -10.2324052394       -4.1994420393  MEMB      223             0.0000000000
     26034       223  POPC      H101           43.5980634041       -9.1614334948       -3.9701933572  MEMB      223             0.0000000000
     26035       223  POPC      C211           42.6686001641      -11.1524661425       -3.6470879802  MEMB      223             0.0000000000
     26036       223  POPC      H11R           42.0910816536      -11.6206787978       -4.4726610606  MEMB      223             0.0000000000
     26037       223  POPC      H11S           41.9494306982      -10.5531588632       -3.0488014110  MEMB      223             0.0000000000
     26038       223  POPC      C212           43.2040151102      -12.2461687789       -2.7288758978  MEMB      223             0.0000000000
     26039       223  POPC      H12R           43.7902029619      -13.0223150117       -3.2658120770  MEMB      223             0.0000000000
     26040       223  POPC      H12S           42.2874968128      -12.7240500907       -2.3215127414  MEMB      223             0.0000000000
     26041       223  POPC      C213           43.8357721239      -11.7030030635       -1.4318153870  MEMB      223             0.0000000000
     26042       223  POPC      H13R           44.6846617821      -11.0696983841       -1.7674247974  MEMB      223             0.0000000000
     26043       223  POPC      H13S           44.3229991926      -12.5381865398       -0.8846417502  MEMB      223             0.0000000000
     26044       223  POPC      C214           42.8224259191      -10.9219415588       -0.5209125427  MEMB      223             0.0000000000
     26045       223  POPC      H14R           42.1718519568      -11.6644790324       -0.0112922527  MEMB      223             0.0000000000
     26046       223  POPC      H14S           42.2071667201      -10.1213265365       -0.9843701151  MEMB      223             0.0000000000
     26047       223  POPC      C215           43.5442028739      -10.3365453621        0.7293317956  MEMB      223             0.0000000000
     26048       223  POPC      H15R           44.2450891177      -11.1310955313        1.0636511885  MEMB      223             0.0000000000
     26049       223  POPC      H15S           42.6678028657      -10.2139003571        1.4010471841  MEMB      223             0.0000000000
     26050       223  POPC      C216           44.3400182962       -9.0239286573        0.4483174595  MEMB      223             0.0000000000
     26051       223  POPC      H16R           43.7021194892       -8.2427351306       -0.0176685400  MEMB      223             0.0000000000
     26052       223  POPC      H16S           45.2123333776       -9.2402428988       -0.2048242574  MEMB      223             0.0000000000
     26053       223  POPC      C217           44.9379567489       -8.4654804998        1.7327474052  MEMB      223             0.0000000000
     26054       223  POPC      H17R           45.6129887924       -9.1748841870        2.2575331931  MEMB      223             0.0000000000
     26055       223  POPC      H17S           44.1095484072       -8.1844248838        2.4176341285  MEMB      223             0.0000000000
     26056       223  POPC      C218           45.7247677483       -7.1527698517        1.5428529772  MEMB      223             0.0000000000
     26057       223  POPC      H18R           46.6541268417       -7.3430856797        0.9645859017  MEMB      223             0.0000000000
     26058       223  POPC      H18S           45.9948751428       -6.6966530453        2.5192348178  MEMB      223             0.0000000000
     26059       223  POPC      H18T           45.0689488132       -6.4257479076        1.0178171231  MEMB      223             0.0000000000
     26060       223  POPC      C33            49.1151102851       -5.8492892153      -13.3860966213  MEMB      223             0.0000000000
     26061       223  POPC      H3X            49.2083297129       -4.7438207390      -13.3263428424  MEMB      223             0.0000000000
     26062       223  POPC      H3Y            50.0131476604       -6.2659160718      -12.8818425188  MEMB      223             0.0000000000
     26063       223  POPC      C34            47.8638713049       -6.4466204334      -12.6451270725  MEMB      223             0.0000000000
     26064       223  POPC      H4X            47.9418357249       -7.5547190898      -12.6261549786  MEMB      223             0.0000000000
     26065       223  POPC      H4Y            46.9557228684       -6.2544495648      -13.2555838847  MEMB      223             0.0000000000
     26066       223  POPC      C35            47.8016113377       -5.8929185916      -11.2013960424  MEMB      223             0.0000000000
     26067       223  POPC      H5X            46.8611928355       -6.1677472125      -10.6775606874  MEMB      223             0.0000000000
     26068       223  POPC      H5Y            47.6543081441       -4.8156254386      -11.4295675244  MEMB      223             0.0000000000
     26069       223  POPC      C36            49.0123092164       -6.0436519986      -10.2491576228  MEMB      223             0.0000000000
     26070       223  POPC      H6X            48.7418457712       -5.6114802766       -9.2620414831  MEMB      223             0.0000000000
     26071       223  POPC      H6Y            49.8155841405       -5.4106407655      -10.6831696289  MEMB      223             0.0000000000
     26072       223  POPC      C37            49.5349414523       -7.5362789978      -10.2998508584  MEMB      223             0.0000000000
     26073       223  POPC      H7X            49.7179296816       -7.9306042017      -11.3222714723  MEMB      223             0.0000000000
     26074       223  POPC      H7Y            48.8607040700       -8.1783502245       -9.6936587927  MEMB      223             0.0000000000
     26075       223  POPC      C38            51.0106858723       -7.5874001272       -9.7165791669  MEMB      223             0.0000000000
     26076       223  POPC      H8X            51.7101457204       -6.9938671468      -10.3433135746  MEMB      223             0.0000000000
     26077       223  POPC      H8Y            51.2947493398       -8.6512655193       -9.8642927795  MEMB      223             0.0000000000
     26078       223  POPC      C39            51.0216034338       -7.2330482515       -8.1989079344  MEMB      223             0.0000000000
     26079       223  POPC      H9X            50.5150472970       -6.2443105156       -8.2098367757  MEMB      223             0.0000000000
     26080       223  POPC      H9Y            52.0523035398       -7.0355034453       -7.8342777504  MEMB      223             0.0000000000
     26081       223  POPC      C310           50.3156892052       -8.2602640050       -7.2465672674  MEMB      223             0.0000000000
     26082       223  POPC      H10X           50.5047029361       -9.2050622067       -7.7996960987  MEMB      223             0.0000000000
     26083       223  POPC      H10Y           49.2237720339       -8.0566814957       -7.2709060234  MEMB      223             0.0000000000
     26084       223  POPC      C311           50.7270524090       -8.3538757040       -5.8017436566  MEMB      223             0.0000000000
     26085       223  POPC      H11X           50.6445787602       -7.4061212722       -5.2279136159  MEMB      223             0.0000000000
     26086       223  POPC      H11Y           51.7550649090       -8.7730790847       -5.8439218722  MEMB      223             0.0000000000
     26087       223  POPC      C312           49.7869375114       -9.2998556274       -4.9473117575  MEMB      223             0.0000000000
     26088       223  POPC      H12X           49.7858887439      -10.3142045277       -5.4005406443  MEMB      223             0.0000000000
     26089       223  POPC      H12Y           48.7495588200       -8.9072717769       -4.8837163148  MEMB      223             0.0000000000
     26090       223  POPC      C313           50.3255517057       -9.6879627884       -3.5841219317  MEMB      223             0.0000000000
     26091       223  POPC      H13X           50.5278262010       -8.7847085778       -2.9696814844  MEMB      223             0.0000000000
     26092       223  POPC      H13Y           51.2810763576      -10.2547771117       -3.5802924481  MEMB      223             0.0000000000
     26093       223  POPC      C314           49.4548730390      -10.5291355740       -2.7069064574  MEMB      223             0.0000000000
     26094       223  POPC      H14X           49.9612210035      -10.8202875431       -1.7618332198  MEMB      223             0.0000000000
     26095       223  POPC      H14Y           49.2282949012      -11.5491542119       -3.0844587063  MEMB      223             0.0000000000
     26096       223  POPC      C315           48.0666888793       -9.9511077751       -2.4526306327  MEMB      223             0.0000000000
     26097       223  POPC      H15X           47.4822696522      -10.5954594379       -1.7615544503  MEMB      223             0.0000000000
     26098       223  POPC      H15Y           47.4531792488       -9.9679690224       -3.3787205860  MEMB      223             0.0000000000
     26099       223  POPC      C316           48.0888961531       -8.5770338044       -1.7077831370  MEMB      223             0.0000000000
     26100       223  POPC      H16X           48.2465759407       -8.8156937051       -0.6342388446  MEMB      223             0.0000000000
     26101       223  POPC      H16Y           47.0399461859       -8.2194719625       -1.6292047792  MEMB      223             0.0000000000
     26102       223  POPC      H16Z           48.6386332185       -7.7261812082       -2.1640281983  MEMB      223             0.0000000000
     26103       224  POPC      N              -5.9585515130       45.7862112075      -20.3095010164  MEMB      224             0.0000000000
     26104       224  POPC      C12            -6.7595143995       44.6388449787      -19.8921360589  MEMB      224             0.0000000000
     26105       224  POPC      H12A           -6.2007311761       43.7150165491      -19.9186415745  MEMB      224             0.0000000000
     26106       224  POPC      H12B           -7.5048163151       44.6146420623      -20.6733780739  MEMB      224             0.0000000000
     26107       224  POPC      C13            -5.7386278013       45.8294494254      -21.8370583007  MEMB      224             0.0000000000
     26108       224  POPC      H13A           -6.6101702245       45.4553685895      -22.3536600233  MEMB      224             0.0000000000
     26109       224  POPC      H13B           -5.4435566035       46.8337611376      -22.1029359252  MEMB      224             0.0000000000
     26110       224  POPC      H13C           -4.9434596400       45.1739025448      -22.1601159628  MEMB      224             0.0000000000
     26111       224  POPC      C14            -6.6819392670       47.0729611417      -19.9776071653  MEMB      224             0.0000000000
     26112       224  POPC      H14A           -7.5678472168       47.1227861206      -20.5933056989  MEMB      224             0.0000000000
     26113       224  POPC      H14B           -7.0599040762       47.0879964326      -18.9660160794  MEMB      224             0.0000000000
     26114       224  POPC      H14C           -5.9921407239       47.8598397259      -20.2448147766  MEMB      224             0.0000000000
     26115       224  POPC      C15            -4.6392267572       45.6434771740      -19.6635859358  MEMB      224             0.0000000000
     26116       224  POPC      H15A           -4.8111710645       45.7882693581      -18.6072382477  MEMB      224             0.0000000000
     26117       224  POPC      H15B           -4.0141240305       46.4233568709      -20.0727735695  MEMB      224             0.0000000000
     26118       224  POPC      H15C           -4.3110808765       44.6312427874      -19.8482524301  MEMB      224             0.0000000000
     26119       224  POPC      C11            -7.5683289205       44.7009968160      -18.6426943320  MEMB      224             0.0000000000
     26120       224  POPC      H11A           -6.8933028473       45.1530920178      -17.8848878034  MEMB      224             0.0000000000
     26121       224  POPC      H11B           -7.7788832818       43.6673139106      -18.2941438132  MEMB      224             0.0000000000
     26122       224  POPC      P              -9.7801340935       45.8916324667      -17.7033008560  MEMB      224             0.0000000000
     26123       224  POPC      O13           -11.0219274709       46.3480343287      -18.3947132457  MEMB      224             0.0000000000
     26124       224  POPC      O14            -9.0621569482       46.8649373623      -16.8547499250  MEMB      224             0.0000000000
     26125       224  POPC      O12            -8.7904871478       45.4348989656      -18.9300841812  MEMB      224             0.0000000000
     26126       224  POPC      O11           -10.0961823955       44.6403979018      -16.7945690073  MEMB      224             0.0000000000
     26127       224  POPC      C1            -10.4521627573       43.3834469914      -17.1801351829  MEMB      224             0.0000000000
     26128       224  POPC      HA             -9.5906241760       42.8002331495      -17.5699221214  MEMB      224             0.0000000000
     26129       224  POPC      HB            -11.2040138434       43.4460319704      -17.9956867296  MEMB      224             0.0000000000
     26130       224  POPC      C2            -11.2936339182       42.5977127408      -16.0803895806  MEMB      224             0.0000000000
     26131       224  POPC      HS            -11.6416816638       41.6267653104      -16.4932396483  MEMB      224             0.0000000000
     26132       224  POPC      O21           -12.3060082754       43.3212401323      -15.3237981461  MEMB      224             0.0000000000
     26133       224  POPC      C21           -13.2154814726       44.0160663346      -15.9180237938  MEMB      224             0.0000000000
     26134       224  POPC      O22           -13.3068639682       44.2597988724      -17.0974254379  MEMB      224             0.0000000000
     26135       224  POPC      C22           -14.2088812734       44.5726630346      -14.8142875103  MEMB      224             0.0000000000
     26136       224  POPC      H2R           -13.7717347189       44.2175800643      -13.8566132225  MEMB      224             0.0000000000
     26137       224  POPC      H2S           -15.2042741690       44.0974588521      -14.9473102452  MEMB      224             0.0000000000
     26138       224  POPC      C3            -10.3631390991       42.0549810684      -14.9074526635  MEMB      224             0.0000000000
     26139       224  POPC      HX             -9.5615771162       41.4872949650      -15.4266363175  MEMB      224             0.0000000000
     26140       224  POPC      HY            -10.9833679052       41.4278092603      -14.2319580395  MEMB      224             0.0000000000
     26141       224  POPC      O31            -9.8386075396       43.1792404227      -14.1984182128  MEMB      224             0.0000000000
     26142       224  POPC      C31            -8.6242043188       42.8939383348      -13.7091852980  MEMB      224             0.0000000000
     26143       224  POPC      O32            -7.9039456263       41.9127617150      -13.9348856149  MEMB      224             0.0000000000
     26144       224  POPC      C32            -8.1347736658       44.2083041580      -13.0175267209  MEMB      224             0.0000000000
     26145       224  POPC      H2X            -7.2797093589       43.9629044415      -12.3519706479  MEMB      224             0.0000000000
     26146       224  POPC      H2Y            -8.9648795844       44.5524170005      -12.3642034148  MEMB      224             0.0000000000
     26147       224  POPC      C23           -14.2903594922       46.0992233868      -14.7505620980  MEMB      224             0.0000000000
     26148       224  POPC      H3R           -14.9332225416       46.3001765141      -13.8670087248  MEMB      224             0.0000000000
     26149       224  POPC      H3S           -14.7351630728       46.4797911271      -15.6948285592  MEMB      224             0.0000000000
     26150       224  POPC      C24           -12.9342411479       46.7012903295      -14.6325201078  MEMB      224             0.0000000000
     26151       224  POPC      H4R           -12.3985586830       46.4814530164      -15.5806961043  MEMB      224             0.0000000000
     26152       224  POPC      H4S           -12.3563807514       46.3420584377      -13.7542542704  MEMB      224             0.0000000000
     26153       224  POPC      C25           -13.0515909161       48.1914132867      -14.4511083021  MEMB      224             0.0000000000
     26154       224  POPC      H5R           -13.7573953365       48.3857750913      -13.6154136332  MEMB      224             0.0000000000
     26155       224  POPC      H5S           -13.5138316281       48.6450225328      -15.3538222685  MEMB      224             0.0000000000
     26156       224  POPC      C26           -11.6304963173       48.7436900046      -14.2825385805  MEMB      224             0.0000000000
     26157       224  POPC      H6R           -11.3392252788       49.1184385179      -15.2870511811  MEMB      224             0.0000000000
     26158       224  POPC      H6S           -10.9696506329       47.8743023529      -14.0781642066  MEMB      224             0.0000000000
     26159       224  POPC      C27           -11.4189059454       49.6450185545      -13.0363342340  MEMB      224             0.0000000000
     26160       224  POPC      H7R           -12.3363586419       50.2655445216      -12.9494459520  MEMB      224             0.0000000000
     26161       224  POPC      H7S           -10.5886186525       50.3683945263      -13.1835443179  MEMB      224             0.0000000000
     26162       224  POPC      C28           -11.1051598096       49.0723691837      -11.6589472125  MEMB      224             0.0000000000
     26163       224  POPC      H8R           -11.1826815196       49.8886380234      -10.9092694446  MEMB      224             0.0000000000
     26164       224  POPC      H8S           -10.1423820816       48.5246442651      -11.5730561422  MEMB      224             0.0000000000
     26165       224  POPC      C29           -12.3141959580       48.2237422513      -11.2646575386  MEMB      224             0.0000000000
     26166       224  POPC      H91           -13.2976115223       48.7149211381      -11.3051226406  MEMB      224             0.0000000000
     26167       224  POPC      C210          -12.3039126669       46.9241360051      -10.8785560763  MEMB      224             0.0000000000
     26168       224  POPC      H101          -13.2671520986       46.4586899282      -10.6225685445  MEMB      224             0.0000000000
     26169       224  POPC      C211          -11.1130725886       46.0596200458      -10.7180428592  MEMB      224             0.0000000000
     26170       224  POPC      H11R          -10.2263755217       46.7237742621      -10.6344449703  MEMB      224             0.0000000000
     26171       224  POPC      H11S          -11.0310131090       45.4951249180      -11.6714228054  MEMB      224             0.0000000000
     26172       224  POPC      C212          -11.1556984574       45.0217712573       -9.5829243858  MEMB      224             0.0000000000
     26173       224  POPC      H12R          -10.1224823943       44.6634226052       -9.3870371927  MEMB      224             0.0000000000
     26174       224  POPC      H12S          -11.7435613308       44.1840382393      -10.0152917263  MEMB      224             0.0000000000
     26175       224  POPC      C213          -11.7619898382       45.5463019483       -8.2848550778  MEMB      224             0.0000000000
     26176       224  POPC      H13R          -12.8677106281       45.6286015586       -8.3550631386  MEMB      224             0.0000000000
     26177       224  POPC      H13S          -11.3940589451       46.5668698447       -8.0452948261  MEMB      224             0.0000000000
     26178       224  POPC      C214          -11.5155149000       44.5709186037       -7.1539300299  MEMB      224             0.0000000000
     26179       224  POPC      H14R          -10.5056404048       44.7505082019       -6.7270554499  MEMB      224             0.0000000000
     26180       224  POPC      H14S          -11.6002111205       43.5407152218       -7.5611505163  MEMB      224             0.0000000000
     26181       224  POPC      C215          -12.3726274752       44.6180607590       -5.9080501006  MEMB      224             0.0000000000
     26182       224  POPC      H15R          -13.4206335662       44.3365521928       -6.1462878284  MEMB      224             0.0000000000
     26183       224  POPC      H15S          -12.3795982295       45.6874661085       -5.6069776775  MEMB      224             0.0000000000
     26184       224  POPC      C216          -11.9462844283       43.6928281055       -4.7658232798  MEMB      224             0.0000000000
     26185       224  POPC      H16R          -10.9230918220       44.0157338847       -4.4775009965  MEMB      224             0.0000000000
     26186       224  POPC      H16S          -11.9047540389       42.5925271254       -4.9139244688  MEMB      224             0.0000000000
     26187       224  POPC      C217          -12.9031662387       43.7277870502       -3.5500857125  MEMB      224             0.0000000000
     26188       224  POPC      H17R          -12.8629729604       44.8081078412       -3.2939366954  MEMB      224             0.0000000000
     26189       224  POPC      H17S          -12.6205841411       43.1814565040       -2.6248868249  MEMB      224             0.0000000000
     26190       224  POPC      C218          -14.3415734577       43.3373436854       -3.8025992205  MEMB      224             0.0000000000
     26191       224  POPC      H18R          -14.8678282067       43.9279396711       -4.5827110130  MEMB      224             0.0000000000
     26192       224  POPC      H18S          -14.9246179962       43.3877694794       -2.8582289428  MEMB      224             0.0000000000
     26193       224  POPC      H18T          -14.4262603131       42.3361855432       -4.2767633463  MEMB      224             0.0000000000
     26194       224  POPC      C33            -7.6727959216       45.1962922478      -14.0636552591  MEMB      224             0.0000000000
     26195       224  POPC      H3X            -8.3853794306       45.2685988658      -14.9129593277  MEMB      224             0.0000000000
     26196       224  POPC      H3Y            -6.6728657430       44.9536545504      -14.4826872629  MEMB      224             0.0000000000
     26197       224  POPC      C34            -7.5809572616       46.6209422163      -13.3589397543  MEMB      224             0.0000000000
     26198       224  POPC      H4X            -8.5317672674       46.8872829252      -12.8496819466  MEMB      224             0.0000000000
     26199       224  POPC      H4Y            -7.4923876724       47.3344704960      -14.2059071455  MEMB      224             0.0000000000
     26200       224  POPC      C35            -6.2522119144       46.7090689996      -12.5354474302  MEMB      224             0.0000000000
     26201       224  POPC      H5X            -5.4672564331       46.5798827456      -13.3109964150  MEMB      224             0.0000000000
     26202       224  POPC      H5Y            -6.4078804347       45.7974569813      -11.9197758788  MEMB      224             0.0000000000
     26203       224  POPC      C36            -6.0301285697       48.0447769508      -11.8476939194  MEMB      224             0.0000000000
     26204       224  POPC      H6X            -6.1345482446       48.9168601295      -12.5280530720  MEMB      224             0.0000000000
     26205       224  POPC      H6Y            -4.9966571073       47.9139638328      -11.4615001658  MEMB      224             0.0000000000
     26206       224  POPC      C37            -6.8573226365       48.3115229903      -10.5555512071  MEMB      224             0.0000000000
     26207       224  POPC      H7X            -7.9327190727       48.5200095008      -10.7409614651  MEMB      224             0.0000000000
     26208       224  POPC      H7Y            -6.4868595171       49.2098105044      -10.0168884659  MEMB      224             0.0000000000
     26209       224  POPC      C38            -6.6433938313       47.1976035116       -9.5466512446  MEMB      224             0.0000000000
     26210       224  POPC      H8X            -5.5605024372       47.2810416936       -9.3127584225  MEMB      224             0.0000000000
     26211       224  POPC      H8Y            -6.8421091980       46.2384963786      -10.0710040537  MEMB      224             0.0000000000
     26212       224  POPC      C39            -7.5217134322       47.3475875446       -8.3098186328  MEMB      224             0.0000000000
     26213       224  POPC      H9X            -8.5844375133       47.1693584624       -8.5803233199  MEMB      224             0.0000000000
     26214       224  POPC      H9Y            -7.4196859651       48.3314993050       -7.8040225347  MEMB      224             0.0000000000
     26215       224  POPC      C310           -7.0521296313       46.3327828126       -7.2269038003  MEMB      224             0.0000000000
     26216       224  POPC      H10X           -7.8924637641       46.2155264222       -6.5096795131  MEMB      224             0.0000000000
     26217       224  POPC      H10Y           -6.2318052134       46.7985108406       -6.6399737358  MEMB      224             0.0000000000
     26218       224  POPC      C311           -6.8031138725       44.9087800614       -7.6425785639  MEMB      224             0.0000000000
     26219       224  POPC      H11X           -5.7310328068       44.8693304818       -7.9313811297  MEMB      224             0.0000000000
     26220       224  POPC      H11Y           -7.3486332508       44.7639794128       -8.5995333225  MEMB      224             0.0000000000
     26221       224  POPC      C312           -7.1037973369       43.9141111085       -6.5270574024  MEMB      224             0.0000000000
     26222       224  POPC      H12X           -7.0750628878       42.8961861619       -6.9712694979  MEMB      224             0.0000000000
     26223       224  POPC      H12Y           -8.1062614061       44.1248622959       -6.0969747761  MEMB      224             0.0000000000
     26224       224  POPC      C313           -5.9836447810       43.7948839654       -5.4568305506  MEMB      224             0.0000000000
     26225       224  POPC      H13X           -5.7698188086       44.7179496624       -4.8767021194  MEMB      224             0.0000000000
     26226       224  POPC      H13Y           -4.9478523451       43.6133724763       -5.8153125953  MEMB      224             0.0000000000
     26227       224  POPC      C314           -6.1290067060       42.5335443283       -4.5848477373  MEMB      224             0.0000000000
     26228       224  POPC      H14X           -5.1238595851       42.4753635349       -4.1151506934  MEMB      224             0.0000000000
     26229       224  POPC      H14Y           -6.1850480269       41.5339880405       -5.0665809963  MEMB      224             0.0000000000
     26230       224  POPC      C315           -7.2825955638       42.4380649804       -3.5654869863  MEMB      224             0.0000000000
     26231       224  POPC      H15X           -7.3151203257       41.4674084995       -3.0259610946  MEMB      224             0.0000000000
     26232       224  POPC      H15Y           -8.2396508521       42.4436161468       -4.1296996420  MEMB      224             0.0000000000
     26233       224  POPC      C316           -7.4150308305       43.6248964282       -2.6153375355  MEMB      224             0.0000000000
     26234       224  POPC      H16X           -6.4453886331       43.8472482196       -2.1206909517  MEMB      224             0.0000000000
     26235       224  POPC      H16Y           -8.1106268581       43.4770099291       -1.7617578954  MEMB      224             0.0000000000
     26236       224  POPC      H16Z           -7.8329820640       44.4939638142       -3.1670252694  MEMB      224             0.0000000000
     26237       225  POPC      N             -48.4023182416       -6.1941893772      -20.2002750462  MEMB      225             0.0000000000
     26238       225  POPC      C12           -47.3728180121       -5.0854814532      -20.4346278655  MEMB      225             0.0000000000
     26239       225  POPC      H12A          -47.7262594275       -4.3053704515      -19.7766719206  MEMB      225             0.0000000000
     26240       225  POPC      H12B          -47.5085176605       -4.9082352898      -21.4913063473  MEMB      225             0.0000000000
     26241       225  POPC      C13           -48.4334198100       -6.4707152726      -18.6953793883  MEMB      225             0.0000000000
     26242       225  POPC      H13A          -49.1477561358       -5.8011188151      -18.2395677750  MEMB      225             0.0000000000
     26243       225  POPC      H13B          -48.7757036229       -7.4900308490      -18.5941990246  MEMB      225             0.0000000000
     26244       225  POPC      H13C          -47.5461894584       -6.3506923147      -18.0913788029  MEMB      225             0.0000000000
     26245       225  POPC      C14           -49.8275284281       -5.7509136871      -20.6725325014  MEMB      225             0.0000000000
     26246       225  POPC      H14A          -50.5475541842       -6.4416392065      -20.2591789094  MEMB      225             0.0000000000
     26247       225  POPC      H14B          -49.9519418021       -4.7844659050      -20.2068071169  MEMB      225             0.0000000000
     26248       225  POPC      H14C          -49.8937345289       -5.8652228728      -21.7444234053  MEMB      225             0.0000000000
     26249       225  POPC      C15           -47.9216784160       -7.4866731376      -20.7630118453  MEMB      225             0.0000000000
     26250       225  POPC      H15A          -46.9414115279       -7.7410803533      -20.3878402317  MEMB      225             0.0000000000
     26251       225  POPC      H15B          -47.9465313823       -7.4277991275      -21.8411195310  MEMB      225             0.0000000000
     26252       225  POPC      H15C          -48.6088148049       -8.2841157299      -20.5214985391  MEMB      225             0.0000000000
     26253       225  POPC      C11           -45.9170605408       -5.2406508758      -19.9050309785  MEMB      225             0.0000000000
     26254       225  POPC      H11A          -45.3802857645       -4.3580140333      -20.3138658985  MEMB      225             0.0000000000
     26255       225  POPC      H11B          -45.4102885950       -6.1779939558      -20.2195003803  MEMB      225             0.0000000000
     26256       225  POPC      P             -45.7674263595       -3.7927179443      -17.6396603674  MEMB      225             0.0000000000
     26257       225  POPC      O13           -46.2905964034       -4.2062501426      -16.2886293622  MEMB      225             0.0000000000
     26258       225  POPC      O14           -46.4972956935       -2.7700115835      -18.3889021117  MEMB      225             0.0000000000
     26259       225  POPC      O12           -45.8670337182       -5.1316014307      -18.4948585084  MEMB      225             0.0000000000
     26260       225  POPC      O11           -44.2332926793       -3.4256137545      -17.5170920741  MEMB      225             0.0000000000
     26261       225  POPC      C1            -43.1957010813       -4.3213961745      -17.7844031905  MEMB      225             0.0000000000
     26262       225  POPC      HA            -42.1935164652       -3.8425008288      -17.7597929947  MEMB      225             0.0000000000
     26263       225  POPC      HB            -43.2953682936       -4.9244736913      -18.7121343487  MEMB      225             0.0000000000
     26264       225  POPC      C2            -42.9147145882       -5.2063256356      -16.5245307756  MEMB      225             0.0000000000
     26265       225  POPC      HS            -42.0200100769       -5.8299994512      -16.7363225896  MEMB      225             0.0000000000
     26266       225  POPC      O21           -44.0532502450       -6.0907180546      -16.3639079957  MEMB      225             0.0000000000
     26267       225  POPC      C21           -44.0082855546       -7.3184185288      -16.3379214506  MEMB      225             0.0000000000
     26268       225  POPC      O22           -43.1382241256       -8.0598892201      -16.6622591363  MEMB      225             0.0000000000
     26269       225  POPC      C22           -45.3606513665       -7.7387017316      -15.7817323499  MEMB      225             0.0000000000
     26270       225  POPC      H2R           -45.4084786466       -8.8477314658      -15.8274125012  MEMB      225             0.0000000000
     26271       225  POPC      H2S           -46.1595768510       -7.5384518316      -16.5273455728  MEMB      225             0.0000000000
     26272       225  POPC      C3            -42.6773200088       -4.3591453367      -15.2200692518  MEMB      225             0.0000000000
     26273       225  POPC      HX            -42.0958909956       -3.4173166683      -15.3160923415  MEMB      225             0.0000000000
     26274       225  POPC      HY            -42.1331265751       -5.0269520578      -14.5184934814  MEMB      225             0.0000000000
     26275       225  POPC      O31           -43.9156110084       -4.0414701713      -14.6461033444  MEMB      225             0.0000000000
     26276       225  POPC      C31           -43.8517565899       -3.3575078091      -13.5444500646  MEMB      225             0.0000000000
     26277       225  POPC      O32           -42.8645606112       -3.2446387603      -12.8496434831  MEMB      225             0.0000000000
     26278       225  POPC      C32           -45.2964593026       -2.8889334185      -13.2449013908  MEMB      225             0.0000000000
     26279       225  POPC      H2X           -46.0273637382       -3.6325952522      -12.8614085643  MEMB      225             0.0000000000
     26280       225  POPC      H2Y           -45.6227198551       -2.4573394512      -14.2152629570  MEMB      225             0.0000000000
     26281       225  POPC      C23           -45.6124110786       -7.2972673641      -14.3019607453  MEMB      225             0.0000000000
     26282       225  POPC      H3R           -46.5931851621       -7.7213350780      -13.9977080218  MEMB      225             0.0000000000
     26283       225  POPC      H3S           -45.7549086206       -6.1966286124      -14.2508752749  MEMB      225             0.0000000000
     26284       225  POPC      C24           -44.5723527367       -7.7022256439      -13.3064895889  MEMB      225             0.0000000000
     26285       225  POPC      H4R           -43.5911536215       -7.2688213808      -13.5958509764  MEMB      225             0.0000000000
     26286       225  POPC      H4S           -44.4184436055       -8.7954533056      -13.4309315609  MEMB      225             0.0000000000
     26287       225  POPC      C25           -44.9710419830       -7.5040864065      -11.8425850810  MEMB      225             0.0000000000
     26288       225  POPC      H5R           -44.5618324859       -8.3742661759      -11.2861179489  MEMB      225             0.0000000000
     26289       225  POPC      H5S           -46.0641317369       -7.6701378108      -11.7334851639  MEMB      225             0.0000000000
     26290       225  POPC      C26           -44.5530306377       -6.1088879467      -11.3741676385  MEMB      225             0.0000000000
     26291       225  POPC      H6R           -45.0124083402       -5.2757796946      -11.9479481287  MEMB      225             0.0000000000
     26292       225  POPC      H6S           -43.4610156621       -5.9446207362      -11.4959905299  MEMB      225             0.0000000000
     26293       225  POPC      C27           -44.7749952790       -5.9023536940       -9.8462298429  MEMB      225             0.0000000000
     26294       225  POPC      H7R           -45.6182201122       -6.5566609415       -9.5377257121  MEMB      225             0.0000000000
     26295       225  POPC      H7S           -45.0182356923       -4.8403145039       -9.6289100959  MEMB      225             0.0000000000
     26296       225  POPC      C28           -43.5220129907       -6.1287789295       -8.9503996996  MEMB      225             0.0000000000
     26297       225  POPC      H8R           -43.2514267754       -7.0960694613       -9.4252183062  MEMB      225             0.0000000000
     26298       225  POPC      H8S           -43.7591195126       -6.4130920060       -7.9028939938  MEMB      225             0.0000000000
     26299       225  POPC      C29           -42.3572498492       -5.2129631032       -9.0372540228  MEMB      225             0.0000000000
     26300       225  POPC      H91           -41.7203982313       -5.4609040856       -9.8991962243  MEMB      225             0.0000000000
     26301       225  POPC      C210          -42.0638415202       -4.1857789063       -8.2497833642  MEMB      225             0.0000000000
     26302       225  POPC      H101          -41.1946552496       -3.5806077461       -8.5469071229  MEMB      225             0.0000000000
     26303       225  POPC      C211          -42.7605854786       -3.5920454008       -7.0818580857  MEMB      225             0.0000000000
     26304       225  POPC      H11R          -42.0104630075       -3.3998274976       -6.2851837240  MEMB      225             0.0000000000
     26305       225  POPC      H11S          -43.4751317283       -4.3757561664       -6.7508879330  MEMB      225             0.0000000000
     26306       225  POPC      C212          -43.5576924084       -2.3347698084       -7.5041452067  MEMB      225             0.0000000000
     26307       225  POPC      H12R          -44.3485033043       -2.5693912892       -8.2483846809  MEMB      225             0.0000000000
     26308       225  POPC      H12S          -42.8400105240       -1.6730239315       -8.0345660931  MEMB      225             0.0000000000
     26309       225  POPC      C213          -44.2727548355       -1.6692994533       -6.3397810147  MEMB      225             0.0000000000
     26310       225  POPC      H13R          -44.8521748305       -0.7894321135       -6.6925234820  MEMB      225             0.0000000000
     26311       225  POPC      H13S          -43.5616188194       -1.2130079703       -5.6183901080  MEMB      225             0.0000000000
     26312       225  POPC      C214          -45.1823327843       -2.5937886464       -5.5634368966  MEMB      225             0.0000000000
     26313       225  POPC      H14R          -44.5674133620       -3.4289574369       -5.1650801646  MEMB      225             0.0000000000
     26314       225  POPC      H14S          -45.8080313793       -3.0943727581       -6.3330068327  MEMB      225             0.0000000000
     26315       225  POPC      C215          -46.0320359267       -1.8435376499       -4.4960555201  MEMB      225             0.0000000000
     26316       225  POPC      H15R          -46.8348192832       -2.4256742056       -3.9950805289  MEMB      225             0.0000000000
     26317       225  POPC      H15S          -46.6768438269       -1.0994674304       -5.0107435046  MEMB      225             0.0000000000
     26318       225  POPC      C216          -45.1436963598       -1.1709279253       -3.3949450743  MEMB      225             0.0000000000
     26319       225  POPC      H16R          -44.9808303770       -0.1251821529       -3.7328967227  MEMB      225             0.0000000000
     26320       225  POPC      H16S          -44.1643262052       -1.6953474989       -3.4067484182  MEMB      225             0.0000000000
     26321       225  POPC      C217          -45.6465330846       -1.1407247808       -1.9901370863  MEMB      225             0.0000000000
     26322       225  POPC      H17R          -46.4267529457       -0.3509837625       -1.9467017618  MEMB      225             0.0000000000
     26323       225  POPC      H17S          -44.7893391023       -0.7820693087       -1.3811169299  MEMB      225             0.0000000000
     26324       225  POPC      C218          -46.1765885792       -2.4645080275       -1.5027651741  MEMB      225             0.0000000000
     26325       225  POPC      H18R          -47.2175999521       -2.5581468985       -1.8793925344  MEMB      225             0.0000000000
     26326       225  POPC      H18S          -46.1415062796       -2.5917721808       -0.3996347543  MEMB      225             0.0000000000
     26327       225  POPC      H18T          -45.5400632748       -3.2195738595       -2.0117160672  MEMB      225             0.0000000000
     26328       225  POPC      C33           -45.1924427001       -1.8821470783      -12.0756523033  MEMB      225             0.0000000000
     26329       225  POPC      H3X           -44.4629660442       -1.0711020596      -12.2863423736  MEMB      225             0.0000000000
     26330       225  POPC      H3Y           -44.8758475342       -2.3592803710      -11.1235850625  MEMB      225             0.0000000000
     26331       225  POPC      C34           -46.5783756032       -1.1734177412      -11.7790781169  MEMB      225             0.0000000000
     26332       225  POPC      H4X           -46.7555262250       -0.4579088660      -12.6103335422  MEMB      225             0.0000000000
     26333       225  POPC      H4Y           -46.4789232875       -0.5226752447      -10.8841120193  MEMB      225             0.0000000000
     26334       225  POPC      C35           -47.8217137286       -2.0674300670      -11.5548102588  MEMB      225             0.0000000000
     26335       225  POPC      H5X           -48.1097523986       -2.6385356935      -12.4632118913  MEMB      225             0.0000000000
     26336       225  POPC      H5Y           -48.6373009185       -1.3349916935      -11.3740542811  MEMB      225             0.0000000000
     26337       225  POPC      C36           -47.6961869593       -3.0557288099      -10.4355106745  MEMB      225             0.0000000000
     26338       225  POPC      H6X           -47.6216949991       -2.5388301403       -9.4549055273  MEMB      225             0.0000000000
     26339       225  POPC      H6Y           -46.8361922769       -3.7510023240      -10.5419284798  MEMB      225             0.0000000000
     26340       225  POPC      C37           -48.8887113055       -4.0696511546      -10.3211151689  MEMB      225             0.0000000000
     26341       225  POPC      H7X           -48.8755440204       -4.7398289117      -11.2071228948  MEMB      225             0.0000000000
     26342       225  POPC      H7Y           -49.8230427875       -3.4689580205      -10.3437659430  MEMB      225             0.0000000000
     26343       225  POPC      C38           -48.8366956745       -4.8037038517       -9.0003263372  MEMB      225             0.0000000000
     26344       225  POPC      H8X           -47.7796647101       -5.1404004362       -8.9399772618  MEMB      225             0.0000000000
     26345       225  POPC      H8Y           -49.4946659388       -5.6987492518       -9.0173443032  MEMB      225             0.0000000000
     26346       225  POPC      C39           -49.2589244339       -3.9021410008       -7.7914420884  MEMB      225             0.0000000000
     26347       225  POPC      H9X           -50.3668967153       -3.8694408850       -7.8666044123  MEMB      225             0.0000000000
     26348       225  POPC      H9Y           -48.9866312464       -2.8362057811       -7.9462315519  MEMB      225             0.0000000000
     26349       225  POPC      C310          -48.8035599886       -4.4498823645       -6.4280631594  MEMB      225             0.0000000000
     26350       225  POPC      H10X          -49.1128728408       -3.7109763195       -5.6582162425  MEMB      225             0.0000000000
     26351       225  POPC      H10Y          -47.7000234951       -4.3220110528       -6.4147541651  MEMB      225             0.0000000000
     26352       225  POPC      C311          -49.2280188703       -5.8537772378       -6.0587365948  MEMB      225             0.0000000000
     26353       225  POPC      H11X          -48.8476774622       -6.6467517496       -6.7375986002  MEMB      225             0.0000000000
     26354       225  POPC      H11Y          -50.3249433473       -5.7737465439       -5.9016600771  MEMB      225             0.0000000000
     26355       225  POPC      C312          -48.5174786309       -6.3976069712       -4.7540434350  MEMB      225             0.0000000000
     26356       225  POPC      H12X          -49.0087152303       -7.2506679771       -4.2389759010  MEMB      225             0.0000000000
     26357       225  POPC      H12Y          -48.5366113477       -5.6463754505       -3.9357485532  MEMB      225             0.0000000000
     26358       225  POPC      C313          -46.9454385810       -6.5527687612       -4.8797585446  MEMB      225             0.0000000000
     26359       225  POPC      H13X          -46.3891184008       -5.6199305589       -4.6460029763  MEMB      225             0.0000000000
     26360       225  POPC      H13Y          -46.7394139170       -6.7804457637       -5.9474843920  MEMB      225             0.0000000000
     26361       225  POPC      C314          -46.3679681693       -7.7115749188       -4.0517478341  MEMB      225             0.0000000000
     26362       225  POPC      H14X          -45.3810368531       -7.9527308851       -4.5013378622  MEMB      225             0.0000000000
     26363       225  POPC      H14Y          -46.9743011893       -8.6071016316       -4.3061348685  MEMB      225             0.0000000000
     26364       225  POPC      C315          -46.3514671168       -7.4394876599       -2.5575814357  MEMB      225             0.0000000000
     26365       225  POPC      H15X          -47.1705693590       -7.9786843212       -2.0354135914  MEMB      225             0.0000000000
     26366       225  POPC      H15Y          -46.6314622263       -6.3656820297       -2.5040536647  MEMB      225             0.0000000000
     26367       225  POPC      C316          -44.9222611929       -7.5623524157       -1.9366282701  MEMB      225             0.0000000000
     26368       225  POPC      H16X          -44.8891780286       -8.5378500134       -1.4059386889  MEMB      225             0.0000000000
     26369       225  POPC      H16Y          -44.6982612752       -6.7536796714       -1.2084847289  MEMB      225             0.0000000000
     26370       225  POPC      H16Z          -44.1540548018       -7.6265539714       -2.7366645129  MEMB      225             0.0000000000
     26371       226  POPC      N              45.6085660312        9.9777578607      -19.4492510945  MEMB      226             0.0000000000
     26372       226  POPC      C12            46.4055999567        8.6185923578      -19.4877604923  MEMB      226             0.0000000000
     26373       226  POPC      H12A           47.2822010332        8.6878537136      -18.8607249096  MEMB      226             0.0000000000
     26374       226  POPC      H12B           46.6715056021        8.3029434905      -20.4857886205  MEMB      226             0.0000000000
     26375       226  POPC      C13            45.3638276704       10.4236428831      -18.0173198473  MEMB      226             0.0000000000
     26376       226  POPC      H13A           44.7161327746        9.6811550653      -17.5750496208  MEMB      226             0.0000000000
     26377       226  POPC      H13B           46.3347262762       10.4728327240      -17.5468558525  MEMB      226             0.0000000000
     26378       226  POPC      H13C           44.8686652120       11.3832282211      -17.9970639114  MEMB      226             0.0000000000
     26379       226  POPC      C14            46.4895213877       11.0593372813      -20.0277715007  MEMB      226             0.0000000000
     26380       226  POPC      H14A           46.7255676659       10.7851670908      -21.0453730382  MEMB      226             0.0000000000
     26381       226  POPC      H14B           46.0590282664       12.0411823393      -19.8971723398  MEMB      226             0.0000000000
     26382       226  POPC      H14C           47.3468967619       11.0951840425      -19.3720104715  MEMB      226             0.0000000000
     26383       226  POPC      C15            44.3865015516        9.9067850446      -20.2010581439  MEMB      226             0.0000000000
     26384       226  POPC      H15A           44.4754899427        9.1797802602      -20.9947489363  MEMB      226             0.0000000000
     26385       226  POPC      H15B           44.1412991105       10.8839257212      -20.5902521490  MEMB      226             0.0000000000
     26386       226  POPC      H15C           43.5377024871        9.6234172147      -19.5963740989  MEMB      226             0.0000000000
     26387       226  POPC      C11            45.7547808802        7.4215141115      -18.7128529935  MEMB      226             0.0000000000
     26388       226  POPC      H11A           45.7990248455        7.5634894540      -17.6118505180  MEMB      226             0.0000000000
     26389       226  POPC      H11B           46.4659139554        6.6045386983      -18.9601627306  MEMB      226             0.0000000000
     26390       226  POPC      P              43.8224159903        5.7866024388      -18.5813781029  MEMB      226             0.0000000000
     26391       226  POPC      O13            44.2223004160        5.5715529478      -17.1768750910  MEMB      226             0.0000000000
     26392       226  POPC      O14            44.2019055171        4.7367376253      -19.5469542628  MEMB      226             0.0000000000
     26393       226  POPC      O12            44.3782679474        7.1989514715      -19.1002629626  MEMB      226             0.0000000000
     26394       226  POPC      O11            42.2937436203        5.9493988258      -18.6985154864  MEMB      226             0.0000000000
     26395       226  POPC      C1             41.6478104529        6.7090148021      -19.7939414674  MEMB      226             0.0000000000
     26396       226  POPC      HA             41.1317656847        6.0221303090      -20.4983622695  MEMB      226             0.0000000000
     26397       226  POPC      HB             42.3696951862        7.3084046269      -20.3888659440  MEMB      226             0.0000000000
     26398       226  POPC      C2             40.6515108565        7.6589604868      -19.1954296064  MEMB      226             0.0000000000
     26399       226  POPC      HS             40.1656107139        8.3565373529      -19.9106978502  MEMB      226             0.0000000000
     26400       226  POPC      O21            41.3607525190        8.4262889295      -18.0923474928  MEMB      226             0.0000000000
     26401       226  POPC      C21            40.6430281747        9.2613261246      -17.4323896335  MEMB      226             0.0000000000
     26402       226  POPC      O22            39.5602533150        9.7543455223      -17.7232867253  MEMB      226             0.0000000000
     26403       226  POPC      C22            41.5297638156        9.8193144448      -16.3023064976  MEMB      226             0.0000000000
     26404       226  POPC      H2R            42.3305254475       10.3850027930      -16.8248949934  MEMB      226             0.0000000000
     26405       226  POPC      H2S            42.0334678581        9.0138631168      -15.7262412457  MEMB      226             0.0000000000
     26406       226  POPC      C3             39.4211105739        6.8057586783      -18.6280454003  MEMB      226             0.0000000000
     26407       226  POPC      HX             38.9396339815        6.2882839420      -19.4852042614  MEMB      226             0.0000000000
     26408       226  POPC      HY             38.6505236928        7.4307775306      -18.1281767608  MEMB      226             0.0000000000
     26409       226  POPC      O31            39.8258936366        5.8027556893      -17.7070333732  MEMB      226             0.0000000000
     26410       226  POPC      C31            39.5770986671        6.0488437481      -16.4033077353  MEMB      226             0.0000000000
     26411       226  POPC      O32            38.8762802986        6.9746643173      -15.9499559681  MEMB      226             0.0000000000
     26412       226  POPC      C32            40.4441555071        5.1242724062      -15.5027098017  MEMB      226             0.0000000000
     26413       226  POPC      H2X            41.2842846905        4.6688335577      -16.0693481739  MEMB      226             0.0000000000
     26414       226  POPC      H2Y            39.8093754958        4.2776479082      -15.1641798273  MEMB      226             0.0000000000
     26415       226  POPC      C23            40.6930708100       10.7882613571      -15.4786495749  MEMB      226             0.0000000000
     26416       226  POPC      H3R            39.7190676431       10.3436642587      -15.1820478859  MEMB      226             0.0000000000
     26417       226  POPC      H3S            40.5973022038       11.6568444643      -16.1647344701  MEMB      226             0.0000000000
     26418       226  POPC      C24            41.3860735555       11.2954026372      -14.1176506278  MEMB      226             0.0000000000
     26419       226  POPC      H4R            41.1266787812       12.3670027635      -13.9808729774  MEMB      226             0.0000000000
     26420       226  POPC      H4S            42.4780014849       11.1374888807      -14.2483335658  MEMB      226             0.0000000000
     26421       226  POPC      C25            40.9824859380       10.5678741888      -12.8364354788  MEMB      226             0.0000000000
     26422       226  POPC      H5R            41.0399242192        9.4901685019      -13.1002011521  MEMB      226             0.0000000000
     26423       226  POPC      H5S            40.0372690808       10.8709311293      -12.3373932785  MEMB      226             0.0000000000
     26424       226  POPC      C26            41.9988208797       10.8784962924      -11.6661106574  MEMB      226             0.0000000000
     26425       226  POPC      H6R            42.2191972176       11.9673902061      -11.6580287997  MEMB      226             0.0000000000
     26426       226  POPC      H6S            42.9437822104       10.3115129890      -11.8071747212  MEMB      226             0.0000000000
     26427       226  POPC      C27            41.4560225998       10.5419941577      -10.2801676115  MEMB      226             0.0000000000
     26428       226  POPC      H7R            41.1130163980        9.4875155068      -10.3490342276  MEMB      226             0.0000000000
     26429       226  POPC      H7S            40.6949173058       11.3085761923      -10.0205677533  MEMB      226             0.0000000000
     26430       226  POPC      C28            42.5883225984       10.6227084311       -9.2815638206  MEMB      226             0.0000000000
     26431       226  POPC      H8R            42.7744194447       11.7168800167       -9.3313365620  MEMB      226             0.0000000000
     26432       226  POPC      H8S            43.4380097297       10.0072740384       -9.6470676330  MEMB      226             0.0000000000
     26433       226  POPC      C29            42.0493669657       10.1192220215       -7.9564958116  MEMB      226             0.0000000000
     26434       226  POPC      H91            41.1647580812        9.4666207518       -7.9962305705  MEMB      226             0.0000000000
     26435       226  POPC      C210           42.7005429113       10.4370850255       -6.8052192641  MEMB      226             0.0000000000
     26436       226  POPC      H101           42.2912069390       10.2555219139       -5.8004903577  MEMB      226             0.0000000000
     26437       226  POPC      C211           43.9890384222       11.2870926795       -6.7630886378  MEMB      226             0.0000000000
     26438       226  POPC      H11R           43.7639145185       12.2703169003       -6.2973523931  MEMB      226             0.0000000000
     26439       226  POPC      H11S           44.4441902429       11.5336688695       -7.7461237178  MEMB      226             0.0000000000
     26440       226  POPC      C212           45.0842256360       10.4669376173       -6.0110026985  MEMB      226             0.0000000000
     26441       226  POPC      H12R           46.0686273373       10.9619237087       -6.1533511952  MEMB      226             0.0000000000
     26442       226  POPC      H12S           45.0396864286        9.4674857782       -6.4941519218  MEMB      226             0.0000000000
     26443       226  POPC      C213           44.8633133751       10.3679926870       -4.4842603221  MEMB      226             0.0000000000
     26444       226  POPC      H13R           45.6748124832        9.6996518815       -4.1249402789  MEMB      226             0.0000000000
     26445       226  POPC      H13S           43.9125210554        9.8515837498       -4.2319964486  MEMB      226             0.0000000000
     26446       226  POPC      C214           45.0525312723       11.6821123463       -3.7586974478  MEMB      226             0.0000000000
     26447       226  POPC      H14R           44.1852948791       12.2587005141       -4.1456958415  MEMB      226             0.0000000000
     26448       226  POPC      H14S           46.0149934477       12.1246609438       -4.0935680607  MEMB      226             0.0000000000
     26449       226  POPC      C215           44.8706121176       11.4994350704       -2.2253450254  MEMB      226             0.0000000000
     26450       226  POPC      H15R           45.5772234477       10.7517348499       -1.8058623590  MEMB      226             0.0000000000
     26451       226  POPC      H15S           43.8271660158       11.1533852772       -2.0647491632  MEMB      226             0.0000000000
     26452       226  POPC      C216           45.0718704319       12.8919483043       -1.5282769058  MEMB      226             0.0000000000
     26453       226  POPC      H16R           44.2645719505       13.5561458531       -1.9043506964  MEMB      226             0.0000000000
     26454       226  POPC      H16S           46.0651717628       13.1784849701       -1.9351797991  MEMB      226             0.0000000000
     26455       226  POPC      C217           45.1205136438       12.9093051230       -0.0251349097  MEMB      226             0.0000000000
     26456       226  POPC      H17R           45.3341621461       13.9349608525        0.3446017918  MEMB      226             0.0000000000
     26457       226  POPC      H17S           45.9936999613       12.3992418370        0.4349763524  MEMB      226             0.0000000000
     26458       226  POPC      C218           43.9016885212       12.4011340630        0.7622187683  MEMB      226             0.0000000000
     26459       226  POPC      H18R           43.0063562341       12.9953019603        0.4799678945  MEMB      226             0.0000000000
     26460       226  POPC      H18S           43.9306925182       12.6173548341        1.8515898625  MEMB      226             0.0000000000
     26461       226  POPC      H18T           43.6360046536       11.3419880429        0.5574196972  MEMB      226             0.0000000000
     26462       226  POPC      C33            41.0662560659        5.8565949279      -14.3431674262  MEMB      226             0.0000000000
     26463       226  POPC      H3X            40.2845114679        6.1598849200      -13.6143246389  MEMB      226             0.0000000000
     26464       226  POPC      H3Y            41.5851403620        6.8319028402      -14.4608733414  MEMB      226             0.0000000000
     26465       226  POPC      C34            41.9941766779        4.9060642914      -13.5592524958  MEMB      226             0.0000000000
     26466       226  POPC      H4X            42.7360921496        4.6356260106      -14.3407547936  MEMB      226             0.0000000000
     26467       226  POPC      H4Y            41.4125797167        3.9783258421      -13.3711908480  MEMB      226             0.0000000000
     26468       226  POPC      C35            42.6158575155        5.5581446887      -12.2771138257  MEMB      226             0.0000000000
     26469       226  POPC      H5X            43.0772884353        6.5228921748      -12.5782196899  MEMB      226             0.0000000000
     26470       226  POPC      H5Y            43.4944082664        4.9129274857      -12.0622548214  MEMB      226             0.0000000000
     26471       226  POPC      C36            41.6344234137        5.8554581158      -11.1127810932  MEMB      226             0.0000000000
     26472       226  POPC      H6X            40.9692567704        4.9691916082      -11.1928184227  MEMB      226             0.0000000000
     26473       226  POPC      H6Y            40.9958765200        6.7588201356      -11.2153279925  MEMB      226             0.0000000000
     26474       226  POPC      C37            42.3721439385        6.0643124291       -9.7556753624  MEMB      226             0.0000000000
     26475       226  POPC      H7X            42.8161095162        7.0825567738       -9.7358223437  MEMB      226             0.0000000000
     26476       226  POPC      H7Y            43.1997484547        5.3399007936       -9.5987696790  MEMB      226             0.0000000000
     26477       226  POPC      C38            41.3797955928        5.8362293300       -8.5290985515  MEMB      226             0.0000000000
     26478       226  POPC      H8X            41.2154693513        4.7466606999       -8.3871188734  MEMB      226             0.0000000000
     26479       226  POPC      H8Y            40.4691436364        6.3347637506       -8.9246961103  MEMB      226             0.0000000000
     26480       226  POPC      C39            41.8778870752        6.3101992165       -7.1645814248  MEMB      226             0.0000000000
     26481       226  POPC      H9X            41.0051172458        6.3378737291       -6.4776841617  MEMB      226             0.0000000000
     26482       226  POPC      H9Y            42.2017366140        7.3676594885       -7.2705065987  MEMB      226             0.0000000000
     26483       226  POPC      C310           43.0552379513        5.4850135639       -6.5672780662  MEMB      226             0.0000000000
     26484       226  POPC      H10X           43.8399712480        5.1734544831       -7.2893894165  MEMB      226             0.0000000000
     26485       226  POPC      H10Y           42.6335500643        4.5383423570       -6.1668856785  MEMB      226             0.0000000000
     26486       226  POPC      C311           43.5295090353        6.3824571090       -5.3371259004  MEMB      226             0.0000000000
     26487       226  POPC      H11X           42.6423330352        6.3794891820       -4.6683726215  MEMB      226             0.0000000000
     26488       226  POPC      H11Y           43.8320542963        7.3877916360       -5.7005677159  MEMB      226             0.0000000000
     26489       226  POPC      C312           44.6989764605        5.7120943024       -4.5975564293  MEMB      226             0.0000000000
     26490       226  POPC      H12X           45.4947934483        5.5699016419       -5.3596436194  MEMB      226             0.0000000000
     26491       226  POPC      H12Y           44.4153017859        4.7076237085       -4.2169131823  MEMB      226             0.0000000000
     26492       226  POPC      C313           45.2633861881        6.5769121695       -3.4132999239  MEMB      226             0.0000000000
     26493       226  POPC      H13X           45.3676951238        7.5835357366       -3.8717211650  MEMB      226             0.0000000000
     26494       226  POPC      H13Y           46.3280584100        6.3327618263       -3.2103600426  MEMB      226             0.0000000000
     26495       226  POPC      C314           44.2272030020        6.6241538744       -2.2002015165  MEMB      226             0.0000000000
     26496       226  POPC      H14X           44.1521214561        5.5855339939       -1.8129655751  MEMB      226             0.0000000000
     26497       226  POPC      H14Y           43.1938144700        6.8097715610       -2.5634860289  MEMB      226             0.0000000000
     26498       226  POPC      C315           44.7220880708        7.4699089003       -1.1042236503  MEMB      226             0.0000000000
     26499       226  POPC      H15X           44.4362902493        8.4743251058       -1.4834186240  MEMB      226             0.0000000000
     26500       226  POPC      H15Y           45.8004497136        7.4755317681       -0.8369683180  MEMB      226             0.0000000000
     26501       226  POPC      C316           43.9191635340        7.3525547591        0.1980931053  MEMB      226             0.0000000000
     26502       226  POPC      H16X           44.1394368462        6.4813515025        0.8513970821  MEMB      226             0.0000000000
     26503       226  POPC      H16Y           42.8491716973        7.2548491032       -0.0845589836  MEMB      226             0.0000000000
     26504       226  POPC      H16Z           43.9969371444        8.2405537997        0.8612138001  MEMB      226             0.0000000000
     26505       227  POPC      N             -17.3214327564      -44.9983599242      -20.3893668739  MEMB      227             0.0000000000
     26506       227  POPC      C12           -18.6420717534      -44.8874365530      -19.7008907514  MEMB      227             0.0000000000
     26507       227  POPC      H12A          -19.0008007247      -45.8903766108      -19.5224959280  MEMB      227             0.0000000000
     26508       227  POPC      H12B          -19.4009246917      -44.4575760610      -20.3378853899  MEMB      227             0.0000000000
     26509       227  POPC      C13           -16.2589894581      -45.1699645648      -19.3826169999  MEMB      227             0.0000000000
     26510       227  POPC      H13A          -15.4012084948      -45.5500024953      -19.9175776176  MEMB      227             0.0000000000
     26511       227  POPC      H13B          -16.0667628204      -44.2906417881      -18.7857582437  MEMB      227             0.0000000000
     26512       227  POPC      H13C          -16.5800664906      -45.9543576708      -18.7132613409  MEMB      227             0.0000000000
     26513       227  POPC      C14           -17.2891687857      -46.1464546224      -21.4211096373  MEMB      227             0.0000000000
     26514       227  POPC      H14A          -17.5196787994      -47.0402938208      -20.8604703181  MEMB      227             0.0000000000
     26515       227  POPC      H14B          -18.0319075918      -45.9896954916      -22.1893321397  MEMB      227             0.0000000000
     26516       227  POPC      H14C          -16.3114061727      -46.2745505090      -21.8615319055  MEMB      227             0.0000000000
     26517       227  POPC      C15           -17.0889684453      -43.6943817668      -21.1067607083  MEMB      227             0.0000000000
     26518       227  POPC      H15A          -16.1685047193      -43.8721680011      -21.6429871388  MEMB      227             0.0000000000
     26519       227  POPC      H15B          -16.9064008932      -42.8915022719      -20.4078661571  MEMB      227             0.0000000000
     26520       227  POPC      H15C          -17.9123153030      -43.3664898358      -21.7240019816  MEMB      227             0.0000000000
     26521       227  POPC      C11           -18.6923801242      -43.9562493342      -18.5036017223  MEMB      227             0.0000000000
     26522       227  POPC      H11A          -18.0441140102      -44.3981825370      -17.7169841734  MEMB      227             0.0000000000
     26523       227  POPC      H11B          -19.7496022123      -43.9965743337      -18.1645201335  MEMB      227             0.0000000000
     26524       227  POPC      P             -18.0534986722      -41.6486202848      -17.7091851297  MEMB      227             0.0000000000
     26525       227  POPC      O13           -18.1058881718      -40.2257058915      -18.2531029426  MEMB      227             0.0000000000
     26526       227  POPC      O14           -16.6851885818      -42.0245567445      -17.1394606348  MEMB      227             0.0000000000
     26527       227  POPC      O12           -18.3816205155      -42.6048723815      -18.8398394205  MEMB      227             0.0000000000
     26528       227  POPC      O11           -19.0919942334      -41.9367276365      -16.5540651823  MEMB      227             0.0000000000
     26529       227  POPC      C1            -20.3648131686      -41.3038910660      -16.7094823289  MEMB      227             0.0000000000
     26530       227  POPC      HA            -20.8890503773      -41.6832616534      -17.6125737440  MEMB      227             0.0000000000
     26531       227  POPC      HB            -20.2626447048      -40.1977180741      -16.7257291566  MEMB      227             0.0000000000
     26532       227  POPC      C2            -21.2145223745      -41.5683380608      -15.4321249856  MEMB      227             0.0000000000
     26533       227  POPC      HS            -22.1538327761      -40.9901259761      -15.5651195823  MEMB      227             0.0000000000
     26534       227  POPC      O21           -20.4038438691      -41.0838608471      -14.3254821524  MEMB      227             0.0000000000
     26535       227  POPC      C21           -21.0741854651      -40.6880409746      -13.2356257154  MEMB      227             0.0000000000
     26536       227  POPC      O22           -22.2717554146      -40.6997095085      -13.0710966960  MEMB      227             0.0000000000
     26537       227  POPC      C22           -20.0152863363      -40.3803059010      -12.1387429418  MEMB      227             0.0000000000
     26538       227  POPC      H2R           -19.1190422511      -39.8355278998      -12.5051912495  MEMB      227             0.0000000000
     26539       227  POPC      H2S           -19.5895528473      -41.3471214300      -11.7947377086  MEMB      227             0.0000000000
     26540       227  POPC      C3            -21.6069498663      -43.0102619167      -15.1243206170  MEMB      227             0.0000000000
     26541       227  POPC      HX            -22.1955852646      -43.4674772563      -15.9482041517  MEMB      227             0.0000000000
     26542       227  POPC      HY            -22.2295433610      -42.9893075881      -14.2043971846  MEMB      227             0.0000000000
     26543       227  POPC      O31           -20.5021462915      -43.9416461779      -14.8477025694  MEMB      227             0.0000000000
     26544       227  POPC      C31           -20.8615319079      -45.1685816243      -14.5013844534  MEMB      227             0.0000000000
     26545       227  POPC      O32           -21.9639385755      -45.6296891401      -14.5391954375  MEMB      227             0.0000000000
     26546       227  POPC      C32           -19.6023094372      -45.8074332692      -14.0461914290  MEMB      227             0.0000000000
     26547       227  POPC      H2X           -19.2489988926      -46.2853452946      -14.9848565794  MEMB      227             0.0000000000
     26548       227  POPC      H2Y           -19.8537974721      -46.5426762699      -13.2521560466  MEMB      227             0.0000000000
     26549       227  POPC      C23           -20.6918631335      -39.6927300037      -10.9195901348  MEMB      227             0.0000000000
     26550       227  POPC      H3R           -21.7014812875      -40.0612925698      -10.6382467537  MEMB      227             0.0000000000
     26551       227  POPC      H3S           -20.7861263243      -38.6271120741      -11.2194125135  MEMB      227             0.0000000000
     26552       227  POPC      C24           -19.8067531994      -39.6129195829       -9.6708931945  MEMB      227             0.0000000000
     26553       227  POPC      H4R           -20.1005110009      -38.7005588825       -9.1090883006  MEMB      227             0.0000000000
     26554       227  POPC      H4S           -18.7372720877      -39.5148441782       -9.9553440816  MEMB      227             0.0000000000
     26555       227  POPC      C25           -19.8478139780      -40.8251446060       -8.7247818100  MEMB      227             0.0000000000
     26556       227  POPC      H5R           -19.0706123774      -40.6497812931       -7.9504910842  MEMB      227             0.0000000000
     26557       227  POPC      H5S           -19.7766278838      -41.8688089488       -9.0989720291  MEMB      227             0.0000000000
     26558       227  POPC      C26           -21.2028140870      -40.8389736771       -7.9734550604  MEMB      227             0.0000000000
     26559       227  POPC      H6R           -21.9979687140      -41.1557152441       -8.6817804570  MEMB      227             0.0000000000
     26560       227  POPC      H6S           -21.3900092429      -39.8400218937       -7.5247070124  MEMB      227             0.0000000000
     26561       227  POPC      C27           -21.0965461156      -41.8463792992       -6.8080829493  MEMB      227             0.0000000000
     26562       227  POPC      H7R           -21.5895147575      -41.3344253086       -5.9541466476  MEMB      227             0.0000000000
     26563       227  POPC      H7S           -20.0238799607      -41.9699065290       -6.5464546716  MEMB      227             0.0000000000
     26564       227  POPC      C28           -21.8902529103      -43.1668768751       -7.0079335084  MEMB      227             0.0000000000
     26565       227  POPC      H8R           -22.8870598765      -42.9701435512       -7.4573692059  MEMB      227             0.0000000000
     26566       227  POPC      H8S           -22.0947412809      -43.6246345699       -6.0164878528  MEMB      227             0.0000000000
     26567       227  POPC      C29           -21.1441122849      -44.0897750748       -7.9928496547  MEMB      227             0.0000000000
     26568       227  POPC      H91           -21.3764175146      -43.9238734099       -9.0551635283  MEMB      227             0.0000000000
     26569       227  POPC      C210          -20.2937761866      -45.0420860057       -7.6708570292  MEMB      227             0.0000000000
     26570       227  POPC      H101          -19.7711666575      -45.5074688570       -8.5195608120  MEMB      227             0.0000000000
     26571       227  POPC      C211          -19.8590580357      -45.4465766438       -6.2705666818  MEMB      227             0.0000000000
     26572       227  POPC      H11R          -20.6929166620      -46.0497765712       -5.8520568341  MEMB      227             0.0000000000
     26573       227  POPC      H11S          -19.5654335209      -44.5988686287       -5.6152069006  MEMB      227             0.0000000000
     26574       227  POPC      C212          -18.6608697667      -46.4751917486       -6.4013377627  MEMB      227             0.0000000000
     26575       227  POPC      H12R          -18.8177374678      -47.2981743866       -7.1310039679  MEMB      227             0.0000000000
     26576       227  POPC      H12S          -18.7105734666      -46.9227772500       -5.3857009292  MEMB      227             0.0000000000
     26577       227  POPC      C213          -17.2926499395      -45.9269836717       -6.5713296355  MEMB      227             0.0000000000
     26578       227  POPC      H13R          -17.3198176574      -44.9245358279       -6.0931233573  MEMB      227             0.0000000000
     26579       227  POPC      H13S          -17.2729469707      -45.7100530992       -7.6607671940  MEMB      227             0.0000000000
     26580       227  POPC      C214          -16.2511601987      -47.0075364898       -6.2010089452  MEMB      227             0.0000000000
     26581       227  POPC      H14R          -15.5255874996      -47.2798465178       -6.9970699786  MEMB      227             0.0000000000
     26582       227  POPC      H14S          -16.7452853027      -47.9894739164       -6.0398879949  MEMB      227             0.0000000000
     26583       227  POPC      C215          -15.4875592722      -46.8066877239       -4.8495998599  MEMB      227             0.0000000000
     26584       227  POPC      H15R          -14.7447255870      -45.9841730973       -4.9269857657  MEMB      227             0.0000000000
     26585       227  POPC      H15S          -14.9484868076      -47.7768514724       -4.8996385993  MEMB      227             0.0000000000
     26586       227  POPC      C216          -16.3531216838      -46.7354738281       -3.5558274866  MEMB      227             0.0000000000
     26587       227  POPC      H16R          -17.0360226865      -47.6080551316       -3.6368775678  MEMB      227             0.0000000000
     26588       227  POPC      H16S          -16.9068521553      -45.7724070811       -3.5701738008  MEMB      227             0.0000000000
     26589       227  POPC      C217          -15.6428449903      -46.7074505057       -2.1768922982  MEMB      227             0.0000000000
     26590       227  POPC      H17R          -14.7570396418      -46.0376329757       -2.1450470692  MEMB      227             0.0000000000
     26591       227  POPC      H17S          -15.3715656166      -47.7583858401       -1.9396940047  MEMB      227             0.0000000000
     26592       227  POPC      C218          -16.4807147281      -46.1338977499       -1.0273901216  MEMB      227             0.0000000000
     26593       227  POPC      H18R          -16.0051498928      -46.0303891171       -0.0286688075  MEMB      227             0.0000000000
     26594       227  POPC      H18S          -17.4363017062      -46.6710828337       -0.8468185405  MEMB      227             0.0000000000
     26595       227  POPC      H18T          -16.7795376825      -45.1062975652       -1.3258266779  MEMB      227             0.0000000000
     26596       227  POPC      C33           -18.3832537403      -44.9915686685      -13.6157539956  MEMB      227             0.0000000000
     26597       227  POPC      H3X           -18.2225121092      -44.0697351179      -14.2146745484  MEMB      227             0.0000000000
     26598       227  POPC      H3Y           -17.4934590765      -45.6543805711      -13.6729098708  MEMB      227             0.0000000000
     26599       227  POPC      C34           -18.4814290901      -44.5769702648      -12.1416093635  MEMB      227             0.0000000000
     26600       227  POPC      H4X           -18.5556272565      -45.3976607463      -11.3964366277  MEMB      227             0.0000000000
     26601       227  POPC      H4Y           -19.4438908882      -44.0254856797      -12.0795364952  MEMB      227             0.0000000000
     26602       227  POPC      C35           -17.3300192924      -43.6814488679      -11.7390764528  MEMB      227             0.0000000000
     26603       227  POPC      H5X           -17.5429565785      -42.7052979372      -12.2249862594  MEMB      227             0.0000000000
     26604       227  POPC      H5Y           -16.5244437516      -44.0723977355      -12.3967452043  MEMB      227             0.0000000000
     26605       227  POPC      C36           -17.1198673681      -43.6332761576      -10.2423856298  MEMB      227             0.0000000000
     26606       227  POPC      H6X           -16.5140328983      -44.4965919578       -9.8931415083  MEMB      227             0.0000000000
     26607       227  POPC      H6Y           -18.0713587283      -43.7616301676       -9.6833585779  MEMB      227             0.0000000000
     26608       227  POPC      C37           -16.3308180309      -42.3818384596       -9.7242997844  MEMB      227             0.0000000000
     26609       227  POPC      H7X           -16.7309619774      -41.3775932850       -9.9806152286  MEMB      227             0.0000000000
     26610       227  POPC      H7Y           -15.2679846119      -42.4497454194      -10.0406779363  MEMB      227             0.0000000000
     26611       227  POPC      C38           -16.4577586216      -42.3945606835       -8.1576357221  MEMB      227             0.0000000000
     26612       227  POPC      H8X           -15.7659131053      -43.2177230496       -7.8782171086  MEMB      227             0.0000000000
     26613       227  POPC      H8Y           -17.4609065856      -42.8169969293       -7.9350081240  MEMB      227             0.0000000000
     26614       227  POPC      C39           -16.0766168622      -41.1495517367       -7.3871231688  MEMB      227             0.0000000000
     26615       227  POPC      H9X           -16.8819865729      -40.4143223422       -7.5995807382  MEMB      227             0.0000000000
     26616       227  POPC      H9Y           -15.1207111396      -40.8113978134       -7.8412336426  MEMB      227             0.0000000000
     26617       227  POPC      C310          -15.9547256044      -41.3623715146       -5.8523830358  MEMB      227             0.0000000000
     26618       227  POPC      H10X          -16.0309012697      -40.3568450965       -5.3860835613  MEMB      227             0.0000000000
     26619       227  POPC      H10Y          -14.9549123832      -41.7878054004       -5.6206489453  MEMB      227             0.0000000000
     26620       227  POPC      C311          -17.2465027085      -42.0032286742       -5.2477947289  MEMB      227             0.0000000000
     26621       227  POPC      H11X          -17.0179573455      -43.0277862140       -4.8839677734  MEMB      227             0.0000000000
     26622       227  POPC      H11Y          -17.9745904177      -42.0223555688       -6.0867478660  MEMB      227             0.0000000000
     26623       227  POPC      C312          -17.8718574608      -41.3045609842       -4.0025566554  MEMB      227             0.0000000000
     26624       227  POPC      H12X          -18.1654903351      -40.2918677744       -4.3526317696  MEMB      227             0.0000000000
     26625       227  POPC      H12Y          -17.1914216461      -41.2460251797       -3.1262566452  MEMB      227             0.0000000000
     26626       227  POPC      C313          -19.2932704030      -41.7557770024       -3.6228029826  MEMB      227             0.0000000000
     26627       227  POPC      H13X          -19.3978115567      -42.8572653930       -3.5222261916  MEMB      227             0.0000000000
     26628       227  POPC      H13Y          -19.8701257311      -41.5147074693       -4.5411951735  MEMB      227             0.0000000000
     26629       227  POPC      C314          -19.9860775591      -41.0343640618       -2.4458125762  MEMB      227             0.0000000000
     26630       227  POPC      H14X          -19.5917470863      -41.3405672580       -1.4533087266  MEMB      227             0.0000000000
     26631       227  POPC      H14Y          -21.0274202043      -41.4094360740       -2.3496493105  MEMB      227             0.0000000000
     26632       227  POPC      C315          -20.0599361918      -39.4711945250       -2.5885534095  MEMB      227             0.0000000000
     26633       227  POPC      H15X          -20.9208696432      -39.1353999671       -1.9718225184  MEMB      227             0.0000000000
     26634       227  POPC      H15Y          -20.3556926570      -39.2264068687       -3.6311107943  MEMB      227             0.0000000000
     26635       227  POPC      C316          -18.7935916603      -38.6300158411       -2.3283681505  MEMB      227             0.0000000000
     26636       227  POPC      H16X          -19.1522983410      -37.5926029145       -2.1568293850  MEMB      227             0.0000000000
     26637       227  POPC      H16Y          -18.0498063250      -38.7122645001       -3.1495497429  MEMB      227             0.0000000000
     26638       227  POPC      H16Z          -18.2890334482      -39.0079128226       -1.4135256383  MEMB      227             0.0000000000
     26639       228  POPC      N              19.9885156505      -40.4498276801      -20.9395065690  MEMB      228             0.0000000000
     26640       228  POPC      C12            19.5618108245      -39.7058715489      -19.6339637078  MEMB      228             0.0000000000
     26641       228  POPC      H12A           19.1931541192      -38.7480053283      -19.9700956506  MEMB      228             0.0000000000
     26642       228  POPC      H12B           20.4375522626      -39.5788924445      -19.0148085688  MEMB      228             0.0000000000
     26643       228  POPC      C13            20.7026521868      -41.6874818100      -20.6234150144  MEMB      228             0.0000000000
     26644       228  POPC      H13A           20.0005240025      -42.3899197689      -20.1991544805  MEMB      228             0.0000000000
     26645       228  POPC      H13B           21.1727956855      -41.9888968387      -21.5478143433  MEMB      228             0.0000000000
     26646       228  POPC      H13C           21.4600275593      -41.5338555637      -19.8689740092  MEMB      228             0.0000000000
     26647       228  POPC      C14            18.8092226801      -40.7814916629      -21.7367206084  MEMB      228             0.0000000000
     26648       228  POPC      H14A           18.1396013876      -41.5183478546      -21.3183303158  MEMB      228             0.0000000000
     26649       228  POPC      H14B           18.2049230384      -39.9720752242      -22.1189075300  MEMB      228             0.0000000000
     26650       228  POPC      H14C           19.1475650312      -41.2240554688      -22.6619563339  MEMB      228             0.0000000000
     26651       228  POPC      C15            20.8627691294      -39.5529642069      -21.8366987042  MEMB      228             0.0000000000
     26652       228  POPC      H15A           21.7723778831      -39.2836449006      -21.3204829006  MEMB      228             0.0000000000
     26653       228  POPC      H15B           20.3663507455      -38.6012515192      -21.9559121733  MEMB      228             0.0000000000
     26654       228  POPC      H15C           21.0827173793      -40.0160465036      -22.7872658581  MEMB      228             0.0000000000
     26655       228  POPC      C11            18.3926709391      -40.4461702458      -18.8428318793  MEMB      228             0.0000000000
     26656       228  POPC      H11A           17.5011791676      -40.5448021957      -19.4984499828  MEMB      228             0.0000000000
     26657       228  POPC      H11B           18.0054029824      -39.7836782529      -18.0394335064  MEMB      228             0.0000000000
     26658       228  POPC      P              18.8707185535      -42.4069493004      -17.0594488025  MEMB      228             0.0000000000
     26659       228  POPC      O13            19.3171730777      -43.7610094699      -17.2712435516  MEMB      228             0.0000000000
     26660       228  POPC      O14            17.6289684178      -42.2387312087      -16.2790193798  MEMB      228             0.0000000000
     26661       228  POPC      O12            18.6587233095      -41.7984287792      -18.4530099345  MEMB      228             0.0000000000
     26662       228  POPC      O11            19.8689117300      -41.5054952878      -16.3241418565  MEMB      228             0.0000000000
     26663       228  POPC      C1             21.1672885959      -41.3580622826      -16.8421419625  MEMB      228             0.0000000000
     26664       228  POPC      HA             21.0065818670      -40.9436705955      -17.8603628891  MEMB      228             0.0000000000
     26665       228  POPC      HB             21.7778192463      -42.2834613748      -16.7699628451  MEMB      228             0.0000000000
     26666       228  POPC      C2             21.8710705554      -40.2267009380      -16.1814549392  MEMB      228             0.0000000000
     26667       228  POPC      HS             22.8993701643      -40.0637740453      -16.5692378865  MEMB      228             0.0000000000
     26668       228  POPC      O21            21.7923097282      -40.4693385065      -14.7476562209  MEMB      228             0.0000000000
     26669       228  POPC      C21            22.8261051900      -41.0435204950      -14.2383938805  MEMB      228             0.0000000000
     26670       228  POPC      O22            23.8922977021      -41.3311825199      -14.7597562132  MEMB      228             0.0000000000
     26671       228  POPC      C22            22.6721306683      -41.1618856318      -12.6608141876  MEMB      228             0.0000000000
     26672       228  POPC      H2R            21.5780847686      -41.2697758285      -12.5003639159  MEMB      228             0.0000000000
     26673       228  POPC      H2S            22.9432150703      -40.2486700953      -12.0890870761  MEMB      228             0.0000000000
     26674       228  POPC      C3             21.1663022152      -38.8077014806      -16.4578507760  MEMB      228             0.0000000000
     26675       228  POPC      HX             21.0674044635      -38.6673359884      -17.5555018427  MEMB      228             0.0000000000
     26676       228  POPC      HY             21.9098890451      -38.0760152056      -16.0757056936  MEMB      228             0.0000000000
     26677       228  POPC      O31            19.9436259627      -38.7318854260      -15.7525876922  MEMB      228             0.0000000000
     26678       228  POPC      C31            19.4836287617      -37.4168178133      -15.6235565586  MEMB      228             0.0000000000
     26679       228  POPC      O32            20.0930337564      -36.4076860609      -15.9605089428  MEMB      228             0.0000000000
     26680       228  POPC      C32            18.0478363239      -37.4694014375      -14.8704498667  MEMB      228             0.0000000000
     26681       228  POPC      H2X            17.7072571385      -38.4745115705      -14.5416932717  MEMB      228             0.0000000000
     26682       228  POPC      H2Y            17.2999321710      -37.0500972745      -15.5769515362  MEMB      228             0.0000000000
     26683       228  POPC      C23            23.5298816852      -42.4277462823      -12.1782862118  MEMB      228             0.0000000000
     26684       228  POPC      H3R            23.4815077136      -42.3930890651      -11.0688810394  MEMB      228             0.0000000000
     26685       228  POPC      H3S            24.5698040800      -42.1855177299      -12.4852190472  MEMB      228             0.0000000000
     26686       228  POPC      C24            23.0796846049      -43.7951416517      -12.6974084986  MEMB      228             0.0000000000
     26687       228  POPC      H4R            23.8352938614      -44.4784468602      -12.2541597250  MEMB      228             0.0000000000
     26688       228  POPC      H4S            23.2695942933      -43.7864190747      -13.7920221304  MEMB      228             0.0000000000
     26689       228  POPC      C25            21.6330745807      -44.2260817597      -12.3084832241  MEMB      228             0.0000000000
     26690       228  POPC      H5R            21.2792953888      -43.4373945722      -11.6105337594  MEMB      228             0.0000000000
     26691       228  POPC      H5S            21.4911298201      -45.1409194402      -11.6942810033  MEMB      228             0.0000000000
     26692       228  POPC      C26            20.6368400321      -44.2969999226      -13.4351055230  MEMB      228             0.0000000000
     26693       228  POPC      H6R            20.8295273179      -45.2557167852      -13.9624146982  MEMB      228             0.0000000000
     26694       228  POPC      H6S            20.9502066883      -43.4439409899      -14.0741775032  MEMB      228             0.0000000000
     26695       228  POPC      C27            19.1396245556      -44.1811774312      -13.0238673669  MEMB      228             0.0000000000
     26696       228  POPC      H7R            18.9818430015      -44.6832272225      -12.0454135752  MEMB      228             0.0000000000
     26697       228  POPC      H7S            18.5060558367      -44.6820636463      -13.7867727110  MEMB      228             0.0000000000
     26698       228  POPC      C28            18.7102007528      -42.6913016828      -12.8016657612  MEMB      228             0.0000000000
     26699       228  POPC      H8R            18.9089883776      -42.0659692165      -13.6981946303  MEMB      228             0.0000000000
     26700       228  POPC      H8S            19.3739681174      -42.3838770689      -11.9654696779  MEMB      228             0.0000000000
     26701       228  POPC      C29            17.2768878551      -42.5456053951      -12.4125044026  MEMB      228             0.0000000000
     26702       228  POPC      H91            16.6064797267      -42.5656648808      -13.2843706453  MEMB      228             0.0000000000
     26703       228  POPC      C210           16.6387660283      -42.3390962866      -11.2370318852  MEMB      228             0.0000000000
     26704       228  POPC      H101           15.5413590077      -42.4119040231      -11.2171168051  MEMB      228             0.0000000000
     26705       228  POPC      C211           17.2817315509      -42.2398129338       -9.8708635405  MEMB      228             0.0000000000
     26706       228  POPC      H11R           18.3756244159      -42.0563591423       -9.9346166915  MEMB      228             0.0000000000
     26707       228  POPC      H11S           17.2195511541      -43.1542618258       -9.2429797863  MEMB      228             0.0000000000
     26708       228  POPC      C212           16.6825462809      -41.0184239357       -9.1210336052  MEMB      228             0.0000000000
     26709       228  POPC      H12R           15.6368499014      -41.2888336297       -8.8608065622  MEMB      228             0.0000000000
     26710       228  POPC      H12S           16.7392694206      -40.1216185453       -9.7743661525  MEMB      228             0.0000000000
     26711       228  POPC      C213           17.4892183373      -40.6860591571       -7.8516996851  MEMB      228             0.0000000000
     26712       228  POPC      H13R           17.7859842969      -39.6200759207       -7.7520456399  MEMB      228             0.0000000000
     26713       228  POPC      H13S           18.4758903151      -41.1844753892       -7.9629682864  MEMB      228             0.0000000000
     26714       228  POPC      C214           16.9191322503      -41.1880926289       -6.5207561127  MEMB      228             0.0000000000
     26715       228  POPC      H14R           16.9107665255      -42.2976308974       -6.4644019992  MEMB      228             0.0000000000
     26716       228  POPC      H14S           15.8762452871      -40.8054250631       -6.5042320278  MEMB      228             0.0000000000
     26717       228  POPC      C215           17.7380912714      -40.6213957243       -5.3636139695  MEMB      228             0.0000000000
     26718       228  POPC      H15R           17.7948751199      -39.5230584377       -5.5209407275  MEMB      228             0.0000000000
     26719       228  POPC      H15S           18.6991227837      -41.1643845822       -5.4897184536  MEMB      228             0.0000000000
     26720       228  POPC      C216           17.0848701123      -40.7871231084       -4.0129642280  MEMB      228             0.0000000000
     26721       228  POPC      H16R           17.0601919934      -41.8841605701       -3.8391230219  MEMB      228             0.0000000000
     26722       228  POPC      H16S           16.1433240959      -40.2235202497       -4.1866414600  MEMB      228             0.0000000000
     26723       228  POPC      C217           17.9069260394      -40.0784468432       -2.8490336552  MEMB      228             0.0000000000
     26724       228  POPC      H17R           18.7378739793      -39.5708951147       -3.3840457237  MEMB      228             0.0000000000
     26725       228  POPC      H17S           18.2568487067      -40.8385436031       -2.1181926281  MEMB      228             0.0000000000
     26726       228  POPC      C218           17.1572055830      -39.0716674529       -2.0242643409  MEMB      228             0.0000000000
     26727       228  POPC      H18R           16.4214065976      -39.7572287497       -1.5521138555  MEMB      228             0.0000000000
     26728       228  POPC      H18S           16.7165757327      -38.3197365767       -2.7132964774  MEMB      228             0.0000000000
     26729       228  POPC      H18T           17.7911100443      -38.5891657679       -1.2498744713  MEMB      228             0.0000000000
     26730       228  POPC      C33            18.1209043825      -36.6951365295      -13.5004562828  MEMB      228             0.0000000000
     26731       228  POPC      H3X            17.0965541808      -36.3826679035      -13.2048364833  MEMB      228             0.0000000000
     26732       228  POPC      H3Y            18.7515984322      -35.7871388149      -13.6103957394  MEMB      228             0.0000000000
     26733       228  POPC      C34            18.8100897440      -37.6093171515      -12.4392586696  MEMB      228             0.0000000000
     26734       228  POPC      H4X            19.7755441221      -37.9143988271      -12.8965809005  MEMB      228             0.0000000000
     26735       228  POPC      H4Y            18.1571738610      -38.4956432428      -12.2894328186  MEMB      228             0.0000000000
     26736       228  POPC      C35            19.1671291339      -36.9039471334      -11.1852999141  MEMB      228             0.0000000000
     26737       228  POPC      H5X            18.2770614282      -36.4456088212      -10.7036088722  MEMB      228             0.0000000000
     26738       228  POPC      H5Y            19.9158473942      -36.1169416234      -11.4184612224  MEMB      228             0.0000000000
     26739       228  POPC      C36            19.9185941273      -37.8350370261      -10.2570274552  MEMB      228             0.0000000000
     26740       228  POPC      H6X            19.4659214809      -38.8462590500      -10.1743336348  MEMB      228             0.0000000000
     26741       228  POPC      H6Y            19.9594955035      -37.2975782813       -9.2855401513  MEMB      228             0.0000000000
     26742       228  POPC      C37            21.3893273372      -38.0530374010      -10.6870632152  MEMB      228             0.0000000000
     26743       228  POPC      H7X            21.9705972581      -37.1116975985      -10.7886785914  MEMB      228             0.0000000000
     26744       228  POPC      H7Y            21.3082784651      -38.6012814937      -11.6499654200  MEMB      228             0.0000000000
     26745       228  POPC      C38            22.2217463306      -38.9499831153       -9.6259990252  MEMB      228             0.0000000000
     26746       228  POPC      H8X            22.5601647081      -38.3346190083       -8.7651159113  MEMB      228             0.0000000000
     26747       228  POPC      H8Y            23.1648871729      -39.2009958852      -10.1568462117  MEMB      228             0.0000000000
     26748       228  POPC      C39            21.4933768627      -40.1431062832       -9.0990654013  MEMB      228             0.0000000000
     26749       228  POPC      H9X            20.9939885786      -40.6311679053       -9.9632000930  MEMB      228             0.0000000000
     26750       228  POPC      H9Y            20.6350702015      -39.8896044136       -8.4407591219  MEMB      228             0.0000000000
     26751       228  POPC      C310           22.4062866129      -41.1195509184       -8.4135979053  MEMB      228             0.0000000000
     26752       228  POPC      H10X           22.7634736123      -40.6962677170       -7.4504942754  MEMB      228             0.0000000000
     26753       228  POPC      H10Y           23.3201866919      -41.2193680486       -9.0374128445  MEMB      228             0.0000000000
     26754       228  POPC      C311           21.7357102796      -42.4492979159       -8.2855969814  MEMB      228             0.0000000000
     26755       228  POPC      H11X           22.4693783976      -43.2580176743       -8.0805979436  MEMB      228             0.0000000000
     26756       228  POPC      H11Y           21.4091684105      -42.6203222848       -9.3336626670  MEMB      228             0.0000000000
     26757       228  POPC      C312           20.6517795442      -42.5421679068       -7.2223729350  MEMB      228             0.0000000000
     26758       228  POPC      H12X           19.6977334768      -42.9454080220       -7.6242616441  MEMB      228             0.0000000000
     26759       228  POPC      H12Y           20.4016862021      -41.5006287962       -6.9274656407  MEMB      228             0.0000000000
     26760       228  POPC      C313           20.8935369886      -43.3826079488       -6.0069236326  MEMB      228             0.0000000000
     26761       228  POPC      H13X           21.7591352097      -44.0666207305       -6.1380249665  MEMB      228             0.0000000000
     26762       228  POPC      H13Y           20.0530272781      -44.0294509042       -5.6760783354  MEMB      228             0.0000000000
     26763       228  POPC      C314           21.2648106550      -42.5921637258       -4.6983766589  MEMB      228             0.0000000000
     26764       228  POPC      H14X           20.4384745132      -41.8571166433       -4.5925682058  MEMB      228             0.0000000000
     26765       228  POPC      H14Y           22.1989343402      -41.9920723997       -4.7386807792  MEMB      228             0.0000000000
     26766       228  POPC      C315           21.3834167467      -43.4743723029       -3.5300802771  MEMB      228             0.0000000000
     26767       228  POPC      H15X           22.1544824396      -44.2655140107       -3.6478664399  MEMB      228             0.0000000000
     26768       228  POPC      H15Y           20.3887691359      -43.9687451869       -3.5057388869  MEMB      228             0.0000000000
     26769       228  POPC      C316           21.6731207344      -42.8103992921       -2.1937699733  MEMB      228             0.0000000000
     26770       228  POPC      H16X           21.4557653740      -43.5287881391       -1.3746259478  MEMB      228             0.0000000000
     26771       228  POPC      H16Y           21.0901994442      -41.8666403150       -2.1317794505  MEMB      228             0.0000000000
     26772       228  POPC      H16Z           22.7501547673      -42.6111329116       -2.0077284116  MEMB      228             0.0000000000
     26773       229  POPC      N             -37.5226207631       24.6944508920      -21.0556928190  MEMB      229             0.0000000000
     26774       229  POPC      C12           -38.0596872430       23.6707560733      -20.1021583335  MEMB      229             0.0000000000
     26775       229  POPC      H12A          -37.2694502496       23.0330727702      -19.7343462993  MEMB      229             0.0000000000
     26776       229  POPC      H12B          -38.7955928164       23.1164763914      -20.6657335174  MEMB      229             0.0000000000
     26777       229  POPC      C13           -38.7046674891       25.4048883117      -21.6948300783  MEMB      229             0.0000000000
     26778       229  POPC      H13A          -39.1114657328       24.6323914752      -22.3305687286  MEMB      229             0.0000000000
     26779       229  POPC      H13B          -39.3651186073       25.5481759745      -20.8524091172  MEMB      229             0.0000000000
     26780       229  POPC      H13C          -38.4624166108       26.3264563498      -22.2031869766  MEMB      229             0.0000000000
     26781       229  POPC      C14           -36.8053737777       25.8737774254      -20.3270226088  MEMB      229             0.0000000000
     26782       229  POPC      H14A          -36.0961330054       26.3983103839      -20.9501137479  MEMB      229             0.0000000000
     26783       229  POPC      H14B          -37.5154858297       26.5247789118      -19.8388239969  MEMB      229             0.0000000000
     26784       229  POPC      H14C          -36.1883861404       25.3898767862      -19.5843474550  MEMB      229             0.0000000000
     26785       229  POPC      C15           -36.6362551292       24.1985693757      -22.1726797616  MEMB      229             0.0000000000
     26786       229  POPC      H15A          -36.7121075287       24.8785204072      -23.0083309704  MEMB      229             0.0000000000
     26787       229  POPC      H15B          -36.8909078790       23.1696319704      -22.3796577858  MEMB      229             0.0000000000
     26788       229  POPC      H15C          -35.6094344027       24.2795850531      -21.8479095431  MEMB      229             0.0000000000
     26789       229  POPC      C11           -38.9780511819       24.2273917359      -18.9300254385  MEMB      229             0.0000000000
     26790       229  POPC      H11A          -39.4775868070       23.3671805524      -18.4352306175  MEMB      229             0.0000000000
     26791       229  POPC      H11B          -39.8758544636       24.7637071493      -19.3050401040  MEMB      229             0.0000000000
     26792       229  POPC      P             -38.9807163802       26.0195116082      -16.9277444131  MEMB      229             0.0000000000
     26793       229  POPC      O13           -39.5384068629       27.1966629835      -17.5853141480  MEMB      229             0.0000000000
     26794       229  POPC      O14           -38.0849081986       26.3476309753      -15.7962713941  MEMB      229             0.0000000000
     26795       229  POPC      O12           -38.3124889254       25.0657583738      -17.9759925044  MEMB      229             0.0000000000
     26796       229  POPC      O11           -40.1430029498       25.0743864437      -16.4322685000  MEMB      229             0.0000000000
     26797       229  POPC      C1            -41.3349949291       25.6965124535      -16.0487257035  MEMB      229             0.0000000000
     26798       229  POPC      HA            -42.2137057860       25.1056144812      -16.3849219359  MEMB      229             0.0000000000
     26799       229  POPC      HB            -41.5180163588       26.7010488775      -16.4865966112  MEMB      229             0.0000000000
     26800       229  POPC      C2            -41.5237529821       25.9312568672      -14.4892269478  MEMB      229             0.0000000000
     26801       229  POPC      HS            -42.1289010617       26.8593538414      -14.4070521474  MEMB      229             0.0000000000
     26802       229  POPC      O21           -40.2256746045       26.0439941999      -13.8357902034  MEMB      229             0.0000000000
     26803       229  POPC      C21           -39.9445179176       27.1994251913      -13.2158532061  MEMB      229             0.0000000000
     26804       229  POPC      O22           -40.6222533305       28.2187454911      -13.2100308386  MEMB      229             0.0000000000
     26805       229  POPC      C22           -38.6965638314       27.0366694074      -12.4010586860  MEMB      229             0.0000000000
     26806       229  POPC      H2R           -38.6026363029       27.9299802307      -11.7472278488  MEMB      229             0.0000000000
     26807       229  POPC      H2S           -37.7700590994       26.9039919965      -12.9996461007  MEMB      229             0.0000000000
     26808       229  POPC      C3            -42.3151888706       24.7584107596      -13.8760181791  MEMB      229             0.0000000000
     26809       229  POPC      HX            -41.8577096609       23.8095821555      -14.2292289114  MEMB      229             0.0000000000
     26810       229  POPC      HY            -43.3652374858       24.9525722775      -14.1826453700  MEMB      229             0.0000000000
     26811       229  POPC      O31           -42.2913641189       24.9151950237      -12.4576763212  MEMB      229             0.0000000000
     26812       229  POPC      C31           -42.9082569460       26.0246883689      -11.8697541413  MEMB      229             0.0000000000
     26813       229  POPC      O32           -43.5749840016       26.8633455855      -12.4315693124  MEMB      229             0.0000000000
     26814       229  POPC      C32           -42.7474757866       25.8893614236      -10.3351998902  MEMB      229             0.0000000000
     26815       229  POPC      H2X           -43.0459780548       26.8158146514       -9.7995680630  MEMB      229             0.0000000000
     26816       229  POPC      H2Y           -41.8078398574       25.4504498069       -9.9367503005  MEMB      229             0.0000000000
     26817       229  POPC      C23           -38.8263468341       25.8646558099      -11.4305338122  MEMB      229             0.0000000000
     26818       229  POPC      H3R           -38.5830141622       24.8842299210      -11.8930004174  MEMB      229             0.0000000000
     26819       229  POPC      H3S           -39.8707419719       25.8875802420      -11.0523350084  MEMB      229             0.0000000000
     26820       229  POPC      C24           -37.7999252830       25.9277371533      -10.1592939781  MEMB      229             0.0000000000
     26821       229  POPC      H4R           -37.7892413582       26.9474054471       -9.7182915134  MEMB      229             0.0000000000
     26822       229  POPC      H4S           -36.8394207637       25.5040618986      -10.5229585454  MEMB      229             0.0000000000
     26823       229  POPC      C25           -38.2596673062       25.0128670492       -9.0427584780  MEMB      229             0.0000000000
     26824       229  POPC      H5R           -39.2826353906       25.3731999646       -8.8018909637  MEMB      229             0.0000000000
     26825       229  POPC      H5S           -37.6035507664       25.1322010742       -8.1541694722  MEMB      229             0.0000000000
     26826       229  POPC      C26           -38.1902280888       23.4957052326       -9.3775559959  MEMB      229             0.0000000000
     26827       229  POPC      H6R           -38.3740240405       23.3998461869      -10.4690458176  MEMB      229             0.0000000000
     26828       229  POPC      H6S           -38.9042616334       22.9111193454       -8.7588980591  MEMB      229             0.0000000000
     26829       229  POPC      C27           -36.8738071018       22.8394541211       -9.0878372053  MEMB      229             0.0000000000
     26830       229  POPC      H7R           -36.0612108006       23.4403199450       -9.5493224334  MEMB      229             0.0000000000
     26831       229  POPC      H7S           -36.8093654985       21.8951640485       -9.6696317362  MEMB      229             0.0000000000
     26832       229  POPC      C28           -36.4711786401       22.6262089126       -7.5954755637  MEMB      229             0.0000000000
     26833       229  POPC      H8R           -36.3943575560       23.5799204884       -7.0308038440  MEMB      229             0.0000000000
     26834       229  POPC      H8S           -35.4614195412       22.1722616849       -7.5025261181  MEMB      229             0.0000000000
     26835       229  POPC      C29           -37.4150487890       21.6705667927       -6.9468481987  MEMB      229             0.0000000000
     26836       229  POPC      H91           -37.4249320268       20.6639588536       -7.3902923353  MEMB      229             0.0000000000
     26837       229  POPC      C210          -38.3190638665       21.8994147963       -5.9690804917  MEMB      229             0.0000000000
     26838       229  POPC      H101          -38.8469260457       20.9753285438       -5.6908248446  MEMB      229             0.0000000000
     26839       229  POPC      C211          -38.6954959619       23.1822342011       -5.2329674931  MEMB      229             0.0000000000
     26840       229  POPC      H11R          -39.6242111342       23.4071656798       -5.7997254924  MEMB      229             0.0000000000
     26841       229  POPC      H11S          -37.9432618485       23.9835179171       -5.3954767690  MEMB      229             0.0000000000
     26842       229  POPC      C212          -38.9256355931       23.0536629681       -3.7191746453  MEMB      229             0.0000000000
     26843       229  POPC      H12R          -38.9985812842       24.0404620601       -3.2139744460  MEMB      229             0.0000000000
     26844       229  POPC      H12S          -38.0136678488       22.5184050620       -3.3783895078  MEMB      229             0.0000000000
     26845       229  POPC      C213          -40.0510035704       22.0846530345       -3.2337037595  MEMB      229             0.0000000000
     26846       229  POPC      H13R          -39.9937981568       21.0875667279       -3.7203938506  MEMB      229             0.0000000000
     26847       229  POPC      H13S          -41.0424720846       22.5302229333       -3.4634401416  MEMB      229             0.0000000000
     26848       229  POPC      C214          -40.0758494602       21.7868059545       -1.7185735086  MEMB      229             0.0000000000
     26849       229  POPC      H14R          -39.0719741196       21.4214530674       -1.4134951824  MEMB      229             0.0000000000
     26850       229  POPC      H14S          -40.8336784489       20.9973931857       -1.5266273825  MEMB      229             0.0000000000
     26851       229  POPC      C215          -40.3002577730       23.0088215378       -0.8428375391  MEMB      229             0.0000000000
     26852       229  POPC      H15R          -39.4555742465       23.7151687214       -0.6948359876  MEMB      229             0.0000000000
     26853       229  POPC      H15S          -40.5338310457       22.6038612278        0.1650160045  MEMB      229             0.0000000000
     26854       229  POPC      C216          -41.4826290529       23.9658162273       -1.2853436551  MEMB      229             0.0000000000
     26855       229  POPC      H16R          -41.1413132318       24.5922544708       -2.1370470528  MEMB      229             0.0000000000
     26856       229  POPC      H16S          -41.6038187454       24.7488844911       -0.5066013046  MEMB      229             0.0000000000
     26857       229  POPC      C217          -42.9015009986       23.3967065864       -1.5151052961  MEMB      229             0.0000000000
     26858       229  POPC      H17R          -42.9651030746       22.8231432144       -2.4644746508  MEMB      229             0.0000000000
     26859       229  POPC      H17S          -43.4135396846       24.3825335259       -1.5319155449  MEMB      229             0.0000000000
     26860       229  POPC      C218          -43.5815133036       22.5205097721       -0.4799981064  MEMB      229             0.0000000000
     26861       229  POPC      H18R          -42.9123912758       22.2035844807        0.3483457938  MEMB      229             0.0000000000
     26862       229  POPC      H18S          -43.9473179598       21.6363880682       -1.0446551179  MEMB      229             0.0000000000
     26863       229  POPC      H18T          -44.5364251829       23.0019587229       -0.1788828740  MEMB      229             0.0000000000
     26864       229  POPC      C33           -43.8928093727       25.0441961900       -9.8307362798  MEMB      229             0.0000000000
     26865       229  POPC      H3X           -44.1523072191       24.1979608588      -10.5022036271  MEMB      229             0.0000000000
     26866       229  POPC      H3Y           -44.8268052505       25.6455086761       -9.8506315061  MEMB      229             0.0000000000
     26867       229  POPC      C34           -43.5840678439       24.4750319787       -8.3756276119  MEMB      229             0.0000000000
     26868       229  POPC      H4X           -42.7252290648       23.7839556666       -8.5139390990  MEMB      229             0.0000000000
     26869       229  POPC      H4Y           -44.4461568598       23.8323427671       -8.0962086990  MEMB      229             0.0000000000
     26870       229  POPC      C35           -43.3002009092       25.5971966191       -7.4360796132  MEMB      229             0.0000000000
     26871       229  POPC      H5X           -44.0895303941       26.3279349479       -7.7141111548  MEMB      229             0.0000000000
     26872       229  POPC      H5Y           -42.3193116228       26.0451656918       -7.7034761594  MEMB      229             0.0000000000
     26873       229  POPC      C36           -43.2231993268       25.2257660159       -5.9436268946  MEMB      229             0.0000000000
     26874       229  POPC      H6X           -42.5705528527       24.3452977886       -5.7615573655  MEMB      229             0.0000000000
     26875       229  POPC      H6Y           -44.2687858229       24.9383701937       -5.7018146654  MEMB      229             0.0000000000
     26876       229  POPC      C37           -42.6942637440       26.2974218983       -4.9928313112  MEMB      229             0.0000000000
     26877       229  POPC      H7X           -42.7776830580       26.0287654884       -3.9180358380  MEMB      229             0.0000000000
     26878       229  POPC      H7Y           -43.2860954943       27.2161238102       -5.1929380200  MEMB      229             0.0000000000
     26879       229  POPC      C38           -41.1746797536       26.5474465088       -5.2565351434  MEMB      229             0.0000000000
     26880       229  POPC      H8X           -41.0575252298       27.0315143666       -6.2496489869  MEMB      229             0.0000000000
     26881       229  POPC      H8Y           -40.6114636571       25.5932857700       -5.1747675348  MEMB      229             0.0000000000
     26882       229  POPC      C39           -40.6565479304       27.5384774578       -4.1188193697  MEMB      229             0.0000000000
     26883       229  POPC      H9X           -40.3725364848       27.0424605284       -3.1661246398  MEMB      229             0.0000000000
     26884       229  POPC      H9Y           -41.4889495161       28.2099315494       -3.8178568849  MEMB      229             0.0000000000
     26885       229  POPC      C310          -39.5752155147       28.5204059817       -4.4996300040  MEMB      229             0.0000000000
     26886       229  POPC      H10X          -39.5401732140       29.4018808205       -3.8242823013  MEMB      229             0.0000000000
     26887       229  POPC      H10Y          -39.9287500464       29.0669700290       -5.3999646533  MEMB      229             0.0000000000
     26888       229  POPC      C311          -38.2316857933       27.8641930944       -4.8770127318  MEMB      229             0.0000000000
     26889       229  POPC      H11X          -37.4750297784       28.6528134137       -5.0766885238  MEMB      229             0.0000000000
     26890       229  POPC      H11Y          -38.4559955938       27.2638588084       -5.7845396350  MEMB      229             0.0000000000
     26891       229  POPC      C312          -37.5797687563       26.9171962670       -3.8016933871  MEMB      229             0.0000000000
     26892       229  POPC      H12X          -36.6738224878       26.4172434923       -4.2062052296  MEMB      229             0.0000000000
     26893       229  POPC      H12Y          -38.2780038838       26.0888029745       -3.5556177082  MEMB      229             0.0000000000
     26894       229  POPC      C313          -37.2981405302       27.6209087327       -2.4932248896  MEMB      229             0.0000000000
     26895       229  POPC      H13X          -38.2636987830       28.0989333315       -2.2220953843  MEMB      229             0.0000000000
     26896       229  POPC      H13Y          -36.5050699016       28.3768334571       -2.6774475157  MEMB      229             0.0000000000
     26897       229  POPC      C314          -36.6750508496       26.8258613904       -1.3125148126  MEMB      229             0.0000000000
     26898       229  POPC      H14X          -36.5199127666       27.4694039028       -0.4202669330  MEMB      229             0.0000000000
     26899       229  POPC      H14Y          -35.6672718390       26.5543899449       -1.6933111667  MEMB      229             0.0000000000
     26900       229  POPC      C315          -37.4362912811       25.5585901744       -0.8387193387  MEMB      229             0.0000000000
     26901       229  POPC      H15X          -37.6252882808       24.9994074837       -1.7799496625  MEMB      229             0.0000000000
     26902       229  POPC      H15Y          -38.4048087392       26.0352678311       -0.5759003075  MEMB      229             0.0000000000
     26903       229  POPC      C316          -36.8764159687       24.7906011539        0.3080305338  MEMB      229             0.0000000000
     26904       229  POPC      H16X          -37.0642860265       25.3806822378        1.2304356603  MEMB      229             0.0000000000
     26905       229  POPC      H16Y          -35.7689666357       24.7105361895        0.2697269743  MEMB      229             0.0000000000
     26906       229  POPC      H16Z          -37.2675352483       23.7671121444        0.4919237610  MEMB      229             0.0000000000
     26907       230  POPC      N             -46.9599354786       13.0310544236      -20.8163783423  MEMB      230             0.0000000000
     26908       230  POPC      C12           -46.4652531924       11.8178956795      -20.0387556796  MEMB      230             0.0000000000
     26909       230  POPC      H12A          -46.4483803692       11.0069131513      -20.7517932144  MEMB      230             0.0000000000
     26910       230  POPC      H12B          -47.1302381254       11.6559370933      -19.2033129811  MEMB      230             0.0000000000
     26911       230  POPC      C13           -47.3423595411       14.0923852816      -19.8760696562  MEMB      230             0.0000000000
     26912       230  POPC      H13A          -46.4535542351       14.6214067063      -19.5653262989  MEMB      230             0.0000000000
     26913       230  POPC      H13B          -48.0753283672       14.7450709614      -20.3268004654  MEMB      230             0.0000000000
     26914       230  POPC      H13C          -47.7152665049       13.6406778584      -18.9687104140  MEMB      230             0.0000000000
     26915       230  POPC      C14           -45.9795677834       13.6818435106      -21.6723268027  MEMB      230             0.0000000000
     26916       230  POPC      H14A          -44.9966355800       13.6508301319      -21.2259161307  MEMB      230             0.0000000000
     26917       230  POPC      H14B          -45.9750055552       13.2198928670      -22.6485343134  MEMB      230             0.0000000000
     26918       230  POPC      H14C          -46.2943678843       14.7144875833      -21.7031033113  MEMB      230             0.0000000000
     26919       230  POPC      C15           -48.1994434591       12.6445297719      -21.6072240090  MEMB      230             0.0000000000
     26920       230  POPC      H15A          -48.9717119695       12.2853555027      -20.9431493643  MEMB      230             0.0000000000
     26921       230  POPC      H15B          -47.8725287154       11.9217932683      -22.3401487236  MEMB      230             0.0000000000
     26922       230  POPC      H15C          -48.3660434582       13.5604971880      -22.1546253090  MEMB      230             0.0000000000
     26923       230  POPC      C11           -45.0164604155       11.8298076633      -19.3861143967  MEMB      230             0.0000000000
     26924       230  POPC      H11A          -44.2519130207       11.8638067840      -20.1914914424  MEMB      230             0.0000000000
     26925       230  POPC      H11B          -44.8505953043       10.9397861481      -18.7421645331  MEMB      230             0.0000000000
     26926       230  POPC      P             -45.2300013454       13.0623018756      -17.0627582667  MEMB      230             0.0000000000
     26927       230  POPC      O13           -44.6005213787       11.9871765872      -16.4360405500  MEMB      230             0.0000000000
     26928       230  POPC      O14           -46.6696307152       13.2376182469      -16.8838268943  MEMB      230             0.0000000000
     26929       230  POPC      O12           -44.8403822245       13.0523204108      -18.6340572059  MEMB      230             0.0000000000
     26930       230  POPC      O11           -44.4676246736       14.4134060341      -16.5864482390  MEMB      230             0.0000000000
     26931       230  POPC      C1            -43.1976848426       14.7596132253      -17.2632607713  MEMB      230             0.0000000000
     26932       230  POPC      HA            -43.4714327813       15.1177401660      -18.2787055626  MEMB      230             0.0000000000
     26933       230  POPC      HB            -42.4658428526       13.9484395242      -17.4650659935  MEMB      230             0.0000000000
     26934       230  POPC      C2            -42.4419601408       15.9253344205      -16.6582315449  MEMB      230             0.0000000000
     26935       230  POPC      HS            -41.4474937561       16.1019761091      -17.1210004887  MEMB      230             0.0000000000
     26936       230  POPC      O21           -42.3323887415       15.7931399330      -15.2281614179  MEMB      230             0.0000000000
     26937       230  POPC      C21           -41.4176989866       14.9816546800      -14.7542215693  MEMB      230             0.0000000000
     26938       230  POPC      O22           -40.5841894400       14.3951658322      -15.4057936839  MEMB      230             0.0000000000
     26939       230  POPC      C22           -41.3865203605       15.2262604285      -13.2107963756  MEMB      230             0.0000000000
     26940       230  POPC      H2R           -42.3940059036       15.2889868672      -12.7467281391  MEMB      230             0.0000000000
     26941       230  POPC      H2S           -40.9907144667       16.2236979203      -12.9230870551  MEMB      230             0.0000000000
     26942       230  POPC      C3            -43.2415247882       17.1820335579      -16.9607248750  MEMB      230             0.0000000000
     26943       230  POPC      HX            -43.1652429131       17.5405041649      -18.0095341164  MEMB      230             0.0000000000
     26944       230  POPC      HY            -42.8087267573       18.0198979298      -16.3733659463  MEMB      230             0.0000000000
     26945       230  POPC      O31           -44.6685893432       16.9330512875      -16.7618210618  MEMB      230             0.0000000000
     26946       230  POPC      C31           -45.1439345491       17.5070011382      -15.6210782153  MEMB      230             0.0000000000
     26947       230  POPC      O32           -44.4207364897       18.1316133118      -14.8573845638  MEMB      230             0.0000000000
     26948       230  POPC      C32           -46.6045912394       17.4639980276      -15.5598043331  MEMB      230             0.0000000000
     26949       230  POPC      H2X           -47.0004730590       16.4712274127      -15.8631274905  MEMB      230             0.0000000000
     26950       230  POPC      H2Y           -46.9202947863       18.1487311354      -16.3757656380  MEMB      230             0.0000000000
     26951       230  POPC      C23           -40.5202513993       14.1153434892      -12.5421878304  MEMB      230             0.0000000000
     26952       230  POPC      H3R           -40.4852995080       14.3942817311      -11.4673421143  MEMB      230             0.0000000000
     26953       230  POPC      H3S           -39.4948220061       14.0975725414      -12.9693879542  MEMB      230             0.0000000000
     26954       230  POPC      C24           -41.0336092325       12.6355623180      -12.7814836231  MEMB      230             0.0000000000
     26955       230  POPC      H4R           -40.2002820099       11.9605931599      -12.4911326510  MEMB      230             0.0000000000
     26956       230  POPC      H4S           -41.3176628737       12.4350612938      -13.8366776519  MEMB      230             0.0000000000
     26957       230  POPC      C25           -42.2739457625       12.4353997424      -11.8490243920  MEMB      230             0.0000000000
     26958       230  POPC      H5R           -42.0375392882       13.0246361370      -10.9373038686  MEMB      230             0.0000000000
     26959       230  POPC      H5S           -42.3382865322       11.4203569541      -11.4019569491  MEMB      230             0.0000000000
     26960       230  POPC      C26           -43.5985604326       12.7641585056      -12.5963276309  MEMB      230             0.0000000000
     26961       230  POPC      H6R           -43.4524419771       12.8180479252      -13.6963579757  MEMB      230             0.0000000000
     26962       230  POPC      H6S           -43.8184900987       13.7949527123      -12.2450225376  MEMB      230             0.0000000000
     26963       230  POPC      C27           -44.8468005685       11.9049416761      -12.2314784811  MEMB      230             0.0000000000
     26964       230  POPC      H7R           -45.1542995727       12.2965461607      -11.2382959126  MEMB      230             0.0000000000
     26965       230  POPC      H7S           -44.6037610267       10.8219602966      -12.1824477436  MEMB      230             0.0000000000
     26966       230  POPC      C28           -46.1918906520       12.1479173796      -13.0639876620  MEMB      230             0.0000000000
     26967       230  POPC      H8R           -46.0555027824       12.1548239661      -14.1665626295  MEMB      230             0.0000000000
     26968       230  POPC      H8S           -46.3720365141       13.2191518396      -12.8309097805  MEMB      230             0.0000000000
     26969       230  POPC      C29           -47.2374473773       11.0833239132      -12.6846707519  MEMB      230             0.0000000000
     26970       230  POPC      H91           -47.1701354852       10.1054715674      -13.1839440365  MEMB      230             0.0000000000
     26971       230  POPC      C210          -48.0345589725       11.1879788481      -11.6530461850  MEMB      230             0.0000000000
     26972       230  POPC      H101          -48.8312218267       10.4384943500      -11.5364234551  MEMB      230             0.0000000000
     26973       230  POPC      C211          -48.1093815726       12.3276377955      -10.6420503938  MEMB      230             0.0000000000
     26974       230  POPC      H11R          -49.1270224705       12.7637996233      -10.5499029528  MEMB      230             0.0000000000
     26975       230  POPC      H11S          -47.5262902981       13.2018282154      -11.0027670549  MEMB      230             0.0000000000
     26976       230  POPC      C212          -47.6459351140       12.0106266073       -9.2309840266  MEMB      230             0.0000000000
     26977       230  POPC      H12R          -46.5435280778       11.8946846891       -9.1563026711  MEMB      230             0.0000000000
     26978       230  POPC      H12S          -48.1074903125       11.0469969698       -8.9265082195  MEMB      230             0.0000000000
     26979       230  POPC      C213          -48.3237244949       13.0369065226       -8.2101394132  MEMB      230             0.0000000000
     26980       230  POPC      H13R          -49.4203346575       13.0573792799       -8.3871914068  MEMB      230             0.0000000000
     26981       230  POPC      H13S          -47.9186555444       14.0484928013       -8.4267808980  MEMB      230             0.0000000000
     26982       230  POPC      C214          -48.0841736857       12.7195113845       -6.7819687549  MEMB      230             0.0000000000
     26983       230  POPC      H14R          -47.0716896364       12.2908761197       -6.6223798892  MEMB      230             0.0000000000
     26984       230  POPC      H14S          -48.8683694565       11.9885086205       -6.4904332560  MEMB      230             0.0000000000
     26985       230  POPC      C215          -48.1897310431       13.9356288525       -5.8065445962  MEMB      230             0.0000000000
     26986       230  POPC      H15R          -49.2444303972       14.2690266404       -5.9103514459  MEMB      230             0.0000000000
     26987       230  POPC      H15S          -47.5087290659       14.7462420937       -6.1433879589  MEMB      230             0.0000000000
     26988       230  POPC      C216          -47.9658046542       13.4490098999       -4.3566813430  MEMB      230             0.0000000000
     26989       230  POPC      H16R          -47.9725645351       12.3395027495       -4.2995054753  MEMB      230             0.0000000000
     26990       230  POPC      H16S          -48.7716020623       13.7364088950       -3.6478698688  MEMB      230             0.0000000000
     26991       230  POPC      C217          -46.6431555415       13.9380929174       -3.7236104751  MEMB      230             0.0000000000
     26992       230  POPC      H17R          -46.7033412480       15.0472640462       -3.7026798505  MEMB      230             0.0000000000
     26993       230  POPC      H17S          -45.9308799333       13.6069621209       -4.5093184817  MEMB      230             0.0000000000
     26994       230  POPC      C218          -46.4576336232       13.3497735015       -2.3099995263  MEMB      230             0.0000000000
     26995       230  POPC      H18R          -45.5747489664       13.8939034493       -1.9115558197  MEMB      230             0.0000000000
     26996       230  POPC      H18S          -46.1856573790       12.2745052010       -2.2455963272  MEMB      230             0.0000000000
     26997       230  POPC      H18T          -47.3501772744       13.5740857202       -1.6876085997  MEMB      230             0.0000000000
     26998       230  POPC      C33           -47.0571854416       17.9888617034      -14.2082478201  MEMB      230             0.0000000000
     26999       230  POPC      H3X           -48.1115591104       18.3385695397      -14.2261874840  MEMB      230             0.0000000000
     27000       230  POPC      H3Y           -46.5343138182       18.9175273946      -13.8943903364  MEMB      230             0.0000000000
     27001       230  POPC      C34           -46.9034610933       16.9121509803      -13.0651937754  MEMB      230             0.0000000000
     27002       230  POPC      H4X           -45.9189076034       16.4095652222      -13.1764737215  MEMB      230             0.0000000000
     27003       230  POPC      H4Y           -47.6861218974       16.1269027211      -13.1369447914  MEMB      230             0.0000000000
     27004       230  POPC      C35           -46.8696275109       17.4905873862      -11.7170351772  MEMB      230             0.0000000000
     27005       230  POPC      H5X           -47.8265519803       17.8842762887      -11.3125289123  MEMB      230             0.0000000000
     27006       230  POPC      H5Y           -46.2302539094       18.3964814374      -11.7868800540  MEMB      230             0.0000000000
     27007       230  POPC      C36           -46.2732906102       16.4963579113      -10.6189214152  MEMB      230             0.0000000000
     27008       230  POPC      H6X           -45.4126773634       15.9899581949      -11.1059784027  MEMB      230             0.0000000000
     27009       230  POPC      H6Y           -47.0728697084       15.8515644593      -10.1955585924  MEMB      230             0.0000000000
     27010       230  POPC      C37           -45.7893703716       17.2941716466       -9.4031075976  MEMB      230             0.0000000000
     27011       230  POPC      H7X           -46.7572700299       17.6525029761       -8.9919022992  MEMB      230             0.0000000000
     27012       230  POPC      H7Y           -45.1878728077       18.1572158856       -9.7604257184  MEMB      230             0.0000000000
     27013       230  POPC      C38           -45.0025061995       16.6493677591       -8.3038686519  MEMB      230             0.0000000000
     27014       230  POPC      H8X           -45.6492819270       15.9670952785       -7.7118323826  MEMB      230             0.0000000000
     27015       230  POPC      H8Y           -44.5708919842       17.4639690737       -7.6838242332  MEMB      230             0.0000000000
     27016       230  POPC      C39           -43.7895514298       15.8590979521       -8.8930168498  MEMB      230             0.0000000000
     27017       230  POPC      H9X           -43.3459665987       16.3525515185       -9.7841154191  MEMB      230             0.0000000000
     27018       230  POPC      H9Y           -44.2042504634       14.9278054016       -9.3346497818  MEMB      230             0.0000000000
     27019       230  POPC      C310          -42.5956856191       15.4051179332       -8.0491476001  MEMB      230             0.0000000000
     27020       230  POPC      H10X          -42.3849986322       16.2587490540       -7.3699972032  MEMB      230             0.0000000000
     27021       230  POPC      H10Y          -41.6703884435       15.4535789926       -8.6621712621  MEMB      230             0.0000000000
     27022       230  POPC      C311          -42.4627918978       14.0702631933       -7.3795545042  MEMB      230             0.0000000000
     27023       230  POPC      H11X          -41.4724073267       14.0078817526       -6.8799861300  MEMB      230             0.0000000000
     27024       230  POPC      H11Y          -42.4730350711       13.4037695446       -8.2683753112  MEMB      230             0.0000000000
     27025       230  POPC      C312          -43.7624312632       13.7372199997       -6.4786160235  MEMB      230             0.0000000000
     27026       230  POPC      H12X          -44.7127691071       13.8910225399       -7.0331636309  MEMB      230             0.0000000000
     27027       230  POPC      H12Y          -43.7255983701       14.4693166194       -5.6437510021  MEMB      230             0.0000000000
     27028       230  POPC      C313          -43.6536613150       12.2437932251       -5.9740098046  MEMB      230             0.0000000000
     27029       230  POPC      H13X          -43.5935473012       11.7719186978       -6.9780231849  MEMB      230             0.0000000000
     27030       230  POPC      H13Y          -44.5617590988       11.9453345281       -5.4077928114  MEMB      230             0.0000000000
     27031       230  POPC      C314          -42.4750674796       11.8006920970       -5.1978944212  MEMB      230             0.0000000000
     27032       230  POPC      H14X          -41.5321813067       12.3858176943       -5.2518810362  MEMB      230             0.0000000000
     27033       230  POPC      H14Y          -42.2047646082       10.7457793319       -5.4179318391  MEMB      230             0.0000000000
     27034       230  POPC      C315          -42.8872110345       11.8252688090       -3.6967241322  MEMB      230             0.0000000000
     27035       230  POPC      H15X          -43.8252398355       11.2374485658       -3.7910122010  MEMB      230             0.0000000000
     27036       230  POPC      H15Y          -43.1471410365       12.8645398861       -3.4023209970  MEMB      230             0.0000000000
     27037       230  POPC      C316          -41.8905774035       11.1171474931       -2.7288683931  MEMB      230             0.0000000000
     27038       230  POPC      H16X          -41.2991079586       10.4119663020       -3.3511254934  MEMB      230             0.0000000000
     27039       230  POPC      H16Y          -42.2960971954       10.4213760463       -1.9635078837  MEMB      230             0.0000000000
     27040       230  POPC      H16Z          -41.1944190700       11.8209311996       -2.2245131649  MEMB      230             0.0000000000
     27041       231  POPC      N              11.6437187623       48.0246376372      -20.8838873346  MEMB      231             0.0000000000
     27042       231  POPC      C12            12.1156267690       47.9790315906      -19.3696279860  MEMB      231             0.0000000000
     27043       231  POPC      H12A           12.2567587828       49.0256148450      -19.1434749687  MEMB      231             0.0000000000
     27044       231  POPC      H12B           13.0874141389       47.5130319001      -19.2998172135  MEMB      231             0.0000000000
     27045       231  POPC      C13            10.3101454528       48.7162307145      -21.0215480940  MEMB      231             0.0000000000
     27046       231  POPC      H13A           10.3473878337       49.7290556664      -20.6484547818  MEMB      231             0.0000000000
     27047       231  POPC      H13B            9.9272718925       48.7289505521      -22.0313232529  MEMB      231             0.0000000000
     27048       231  POPC      H13C            9.5460969755       48.2144343937      -20.4463694390  MEMB      231             0.0000000000
     27049       231  POPC      C14            12.7863716287       48.6849589048      -21.6429445008  MEMB      231             0.0000000000
     27050       231  POPC      H14A           12.8461537972       49.6893571605      -21.2505032888  MEMB      231             0.0000000000
     27051       231  POPC      H14B           13.5545135618       47.9692034837      -21.3898588147  MEMB      231             0.0000000000
     27052       231  POPC      H14C           12.6661982283       48.6838211212      -22.7162371660  MEMB      231             0.0000000000
     27053       231  POPC      C15            11.4043882483       46.5896740164      -21.3370875169  MEMB      231             0.0000000000
     27054       231  POPC      H15A           12.3458800995       46.0610055432      -21.3146603032  MEMB      231             0.0000000000
     27055       231  POPC      H15B           10.8981715017       46.5810740164      -22.2910638234  MEMB      231             0.0000000000
     27056       231  POPC      H15C           10.7220732771       46.0761091512      -20.6759541049  MEMB      231             0.0000000000
     27057       231  POPC      C11            11.2484233118       47.4037160168      -18.2415893476  MEMB      231             0.0000000000
     27058       231  POPC      H11A           11.7295164981       47.7650845637      -17.3076283446  MEMB      231             0.0000000000
     27059       231  POPC      H11B           11.1855906905       46.2945508489      -18.2527907445  MEMB      231             0.0000000000
     27060       231  POPC      P               8.9153593394       47.6011874023      -17.2891899089  MEMB      231             0.0000000000
     27061       231  POPC      O13             7.5851632851       47.2538357597      -17.8237726485  MEMB      231             0.0000000000
     27062       231  POPC      O14             8.9152686135       48.7592624200      -16.3669160608  MEMB      231             0.0000000000
     27063       231  POPC      O12             9.9608903861       47.8281205031      -18.3953017610  MEMB      231             0.0000000000
     27064       231  POPC      O11             9.5320835807       46.2789927869      -16.6281348398  MEMB      231             0.0000000000
     27065       231  POPC      C1              8.8259701297       45.2781772866      -15.9283514990  MEMB      231             0.0000000000
     27066       231  POPC      HA              8.7261772640       44.3999528088      -16.6014666401  MEMB      231             0.0000000000
     27067       231  POPC      HB              7.8532122079       45.7484793356      -15.6697419002  MEMB      231             0.0000000000
     27068       231  POPC      C2              9.5357897739       44.9663049353      -14.5840735874  MEMB      231             0.0000000000
     27069       231  POPC      HS              8.8774371145       44.2057604118      -14.1124118755  MEMB      231             0.0000000000
     27070       231  POPC      O21             9.6248118662       46.2016824080      -13.8177956891  MEMB      231             0.0000000000
     27071       231  POPC      C21             8.5183788742       46.7320531443      -13.3180179287  MEMB      231             0.0000000000
     27072       231  POPC      O22             7.3817152495       46.1971522666      -13.3676053128  MEMB      231             0.0000000000
     27073       231  POPC      C22             8.7611151015       48.0624502267      -12.7402220903  MEMB      231             0.0000000000
     27074       231  POPC      H2R             8.9120770912       48.7580987083      -13.5932195696  MEMB      231             0.0000000000
     27075       231  POPC      H2S             9.7243137396       48.1192648432      -12.1894577684  MEMB      231             0.0000000000
     27076       231  POPC      C3             10.9227753891       44.3379517302      -14.8311648389  MEMB      231             0.0000000000
     27077       231  POPC      HX             11.4721343414       45.1452389676      -15.3610829227  MEMB      231             0.0000000000
     27078       231  POPC      HY             10.8668019701       43.4793930306      -15.5340624146  MEMB      231             0.0000000000
     27079       231  POPC      O31            11.4884178255       44.0173993670      -13.5379855431  MEMB      231             0.0000000000
     27080       231  POPC      C31            12.4357150830       44.8051532631      -13.0061564878  MEMB      231             0.0000000000
     27081       231  POPC      O32            12.9044672607       45.8265488529      -13.4183118219  MEMB      231             0.0000000000
     27082       231  POPC      C32            12.7839850426       44.1246483363      -11.6262834409  MEMB      231             0.0000000000
     27083       231  POPC      H2X            13.7115504217       44.5999076594      -11.2414823702  MEMB      231             0.0000000000
     27084       231  POPC      H2Y            12.9366334236       43.0327589102      -11.7633837091  MEMB      231             0.0000000000
     27085       231  POPC      C23             7.6324688918       48.4093466970      -11.7707973228  MEMB      231             0.0000000000
     27086       231  POPC      H3R             6.6558902464       48.4584984822      -12.2982432731  MEMB      231             0.0000000000
     27087       231  POPC      H3S             7.8684931445       49.4374771735      -11.4221409287  MEMB      231             0.0000000000
     27088       231  POPC      C24             7.4558164888       47.3825375200      -10.6029433781  MEMB      231             0.0000000000
     27089       231  POPC      H4R             7.1978551570       46.3578230193      -10.9460721740  MEMB      231             0.0000000000
     27090       231  POPC      H4S             6.5354617180       47.7178104740      -10.0786718425  MEMB      231             0.0000000000
     27091       231  POPC      C25             8.6942022119       47.2333116340       -9.5792040808  MEMB      231             0.0000000000
     27092       231  POPC      H5R             9.4802425550       46.9961615456      -10.3276830359  MEMB      231             0.0000000000
     27093       231  POPC      H5S             8.5323280747       46.4323473500       -8.8264923732  MEMB      231             0.0000000000
     27094       231  POPC      C26             9.1191431225       48.5104732371       -8.9063573986  MEMB      231             0.0000000000
     27095       231  POPC      H6R             9.0287242497       49.2899649110       -9.6928289597  MEMB      231             0.0000000000
     27096       231  POPC      H6S            10.1510150717       48.4676100047       -8.4968158688  MEMB      231             0.0000000000
     27097       231  POPC      C27             8.1882958514       48.9062639031       -7.7078870440  MEMB      231             0.0000000000
     27098       231  POPC      H7R             8.3181735181       48.2225446429       -6.8418727200  MEMB      231             0.0000000000
     27099       231  POPC      H7S             7.1251280923       48.8336909916       -8.0220975135  MEMB      231             0.0000000000
     27100       231  POPC      C28             8.4106059075       50.3702450726       -7.2551758872  MEMB      231             0.0000000000
     27101       231  POPC      H8R             7.4954864612       50.6863653886       -6.7102495710  MEMB      231             0.0000000000
     27102       231  POPC      H8S             8.6521447840       50.9359216564       -8.1803734504  MEMB      231             0.0000000000
     27103       231  POPC      C29             9.6051287476       50.4583505301       -6.3014942159  MEMB      231             0.0000000000
     27104       231  POPC      H91            10.5727209363       50.1060008259       -6.6882953412  MEMB      231             0.0000000000
     27105       231  POPC      C210            9.6116783506       50.7722531977       -4.9967432486  MEMB      231             0.0000000000
     27106       231  POPC      H101           10.5773707887       50.6006487409       -4.4987572728  MEMB      231             0.0000000000
     27107       231  POPC      C211            8.5060744327       51.1952541395       -4.0967602511  MEMB      231             0.0000000000
     27108       231  POPC      H11R            7.9217452301       52.0181715863       -4.5611817959  MEMB      231             0.0000000000
     27109       231  POPC      H11S            8.9537839111       51.6290462396       -3.1771398173  MEMB      231             0.0000000000
     27110       231  POPC      C212            7.6262779306       50.0102406455       -3.5966104029  MEMB      231             0.0000000000
     27111       231  POPC      H12R            7.3980131425       49.3836580662       -4.4852107077  MEMB      231             0.0000000000
     27112       231  POPC      H12S            6.6968049090       50.5719956522       -3.3624468139  MEMB      231             0.0000000000
     27113       231  POPC      C213            8.1877713628       49.1779019502       -2.4967196663  MEMB      231             0.0000000000
     27114       231  POPC      H13R            8.2032578521       49.7830272912       -1.5651055207  MEMB      231             0.0000000000
     27115       231  POPC      H13S            9.1810107158       48.7421910611       -2.7374537752  MEMB      231             0.0000000000
     27116       231  POPC      C214            7.2957013857       47.8782728622       -2.2625937632  MEMB      231             0.0000000000
     27117       231  POPC      H14R            7.2539435032       47.2582374820       -3.1835354171  MEMB      231             0.0000000000
     27118       231  POPC      H14S            6.2598134022       48.1134038033       -1.9370631653  MEMB      231             0.0000000000
     27119       231  POPC      C215            7.8898688116       46.9753188387       -1.1539692379  MEMB      231             0.0000000000
     27120       231  POPC      H15R            8.3061280223       47.6665766394       -0.3902878729  MEMB      231             0.0000000000
     27121       231  POPC      H15S            8.6698976707       46.2921777460       -1.5529617375  MEMB      231             0.0000000000
     27122       231  POPC      C216            6.8727704500       45.9575785319       -0.5289133410  MEMB      231             0.0000000000
     27123       231  POPC      H16R            6.3617997412       45.2954793500       -1.2602511107  MEMB      231             0.0000000000
     27124       231  POPC      H16S            6.1091657334       46.5542521415        0.0144193444  MEMB      231             0.0000000000
     27125       231  POPC      C217            7.5373419381       45.0607479877        0.5679998100  MEMB      231             0.0000000000
     27126       231  POPC      H17R            8.3267559878       45.5748295871        1.1569547357  MEMB      231             0.0000000000
     27127       231  POPC      H17S            8.2299279404       44.3575429338        0.0579529911  MEMB      231             0.0000000000
     27128       231  POPC      C218            6.5022401733       44.5038890777        1.4903958019  MEMB      231             0.0000000000
     27129       231  POPC      H18R            6.9625907420       43.8739935748        2.2813638881  MEMB      231             0.0000000000
     27130       231  POPC      H18S            5.7910268089       43.8504208763        0.9413278734  MEMB      231             0.0000000000
     27131       231  POPC      H18T            5.9212719271       45.2967737042        2.0082095448  MEMB      231             0.0000000000
     27132       231  POPC      C33            11.6539070547       44.4294064197      -10.6609354143  MEMB      231             0.0000000000
     27133       231  POPC      H3X            10.6797876259       44.0082587615      -10.9896400198  MEMB      231             0.0000000000
     27134       231  POPC      H3Y            11.5141190364       45.5281927536      -10.7472420249  MEMB      231             0.0000000000
     27135       231  POPC      C34            11.8106465276       44.1035233953       -9.1237958375  MEMB      231             0.0000000000
     27136       231  POPC      H4X            12.8223731379       44.3197606704       -8.7188616853  MEMB      231             0.0000000000
     27137       231  POPC      H4Y            11.7015849645       42.9996655333       -9.1864409912  MEMB      231             0.0000000000
     27138       231  POPC      C35            10.7716172627       44.8579685600       -8.2768044261  MEMB      231             0.0000000000
     27139       231  POPC      H5X             9.7803421498       44.6890460550       -8.7492027078  MEMB      231             0.0000000000
     27140       231  POPC      H5Y            10.9720953749       45.9506546864       -8.2639046517  MEMB      231             0.0000000000
     27141       231  POPC      C36            10.7371114948       44.3959675494       -6.8284031342  MEMB      231             0.0000000000
     27142       231  POPC      H6X            11.7555094349       44.0826694134       -6.5137116895  MEMB      231             0.0000000000
     27143       231  POPC      H6Y            10.1758961891       43.4377450528       -6.7942242596  MEMB      231             0.0000000000
     27144       231  POPC      C37             9.9799829285       45.3114661386       -5.8626534403  MEMB      231             0.0000000000
     27145       231  POPC      H7X             8.9650101249       45.3833754174       -6.3087258508  MEMB      231             0.0000000000
     27146       231  POPC      H7Y            10.4626855495       46.3118274216       -5.8382272737  MEMB      231             0.0000000000
     27147       231  POPC      C38             9.8327621793       44.7846410992       -4.4465613761  MEMB      231             0.0000000000
     27148       231  POPC      H8X             9.4444548344       43.7473928521       -4.3590689696  MEMB      231             0.0000000000
     27149       231  POPC      H8Y             9.0281230950       45.3494031659       -3.9289510477  MEMB      231             0.0000000000
     27150       231  POPC      C39            11.1881931640       44.8629294204       -3.7424169368  MEMB      231             0.0000000000
     27151       231  POPC      H9X            11.7818709803       44.0406247420       -4.1959393841  MEMB      231             0.0000000000
     27152       231  POPC      H9Y            10.9590928221       44.5692869751       -2.6957043665  MEMB      231             0.0000000000
     27153       231  POPC      C310           11.9782859921       46.2112475475       -3.7286495966  MEMB      231             0.0000000000
     27154       231  POPC      H10X           11.3221982849       47.0957446843       -3.5819018736  MEMB      231             0.0000000000
     27155       231  POPC      H10Y           12.5060289831       46.2509547540       -4.7054970587  MEMB      231             0.0000000000
     27156       231  POPC      C311           12.9768668381       46.2827509759       -2.5399366017  MEMB      231             0.0000000000
     27157       231  POPC      H11X           13.6144720218       47.1616211297       -2.7752392554  MEMB      231             0.0000000000
     27158       231  POPC      H11Y           13.6370770043       45.3892521174       -2.5501115576  MEMB      231             0.0000000000
     27159       231  POPC      C312           12.2601920229       46.6477116951       -1.2585038304  MEMB      231             0.0000000000
     27160       231  POPC      H12X           12.6459643712       45.9864845097       -0.4533465300  MEMB      231             0.0000000000
     27161       231  POPC      H12Y           11.1774716747       46.4376996240       -1.3924169714  MEMB      231             0.0000000000
     27162       231  POPC      C313           12.2667040761       48.1982555238       -1.0898732234  MEMB      231             0.0000000000
     27163       231  POPC      H13X           12.0922682377       48.8158222419       -1.9967929400  MEMB      231             0.0000000000
     27164       231  POPC      H13Y           13.3305471603       48.3752015190       -0.8229482905  MEMB      231             0.0000000000
     27165       231  POPC      C314           11.3751501590       48.7985856082       -0.0196659254  MEMB      231             0.0000000000
     27166       231  POPC      H14X           11.6297213131       48.4054887619        0.9878010013  MEMB      231             0.0000000000
     27167       231  POPC      H14Y           10.3444823657       48.4080122292       -0.1592985132  MEMB      231             0.0000000000
     27168       231  POPC      C315           11.3950095984       50.3795467775        0.1765362217  MEMB      231             0.0000000000
     27169       231  POPC      H15X           12.3888235243       50.6358371563        0.6019433676  MEMB      231             0.0000000000
     27170       231  POPC      H15Y           10.5824409837       50.7050853473        0.8606982191  MEMB      231             0.0000000000
     27171       231  POPC      C316           11.1447595629       51.1286855509       -1.1167342715  MEMB      231             0.0000000000
     27172       231  POPC      H16X           10.2700154393       50.7437774141       -1.6832925056  MEMB      231             0.0000000000
     27173       231  POPC      H16Y           12.0228779154       51.0406076517       -1.7916207149  MEMB      231             0.0000000000
     27174       231  POPC      H16Z           11.0323713183       52.2156267934       -0.9161137047  MEMB      231             0.0000000000
     27175       232  POPC      N              -0.7801139522       50.1784594250      -17.3924273877  MEMB      232             0.0000000000
     27176       232  POPC      C12            -0.7798487508       50.7716077937      -18.7968605990  MEMB      232             0.0000000000
     27177       232  POPC      H12A            0.1272296998       51.3514928455      -18.8825470273  MEMB      232             0.0000000000
     27178       232  POPC      H12B           -1.6334307783       51.4214992744      -18.9211139530  MEMB      232             0.0000000000
     27179       232  POPC      C13             0.4965304952       49.6842272662      -16.8527645997  MEMB      232             0.0000000000
     27180       232  POPC      H13A            1.1993416654       50.4793406879      -16.6521378481  MEMB      232             0.0000000000
     27181       232  POPC      H13B            0.2674385729       49.2420881115      -15.8944170319  MEMB      232             0.0000000000
     27182       232  POPC      H13C            0.9680938588       48.9603361464      -17.5008461779  MEMB      232             0.0000000000
     27183       232  POPC      C14            -1.2931809185       51.2508225474      -16.4251856921  MEMB      232             0.0000000000
     27184       232  POPC      H14A           -0.8535401319       52.1998187878      -16.6944845653  MEMB      232             0.0000000000
     27185       232  POPC      H14B           -2.3702657685       51.3268786097      -16.4027445488  MEMB      232             0.0000000000
     27186       232  POPC      H14C           -0.9932473437       50.9146229405      -15.4436515402  MEMB      232             0.0000000000
     27187       232  POPC      C15            -1.8031118802       49.0623239391      -17.2391582918  MEMB      232             0.0000000000
     27188       232  POPC      H15A           -2.7495305100       49.5048844279      -17.5127128914  MEMB      232             0.0000000000
     27189       232  POPC      H15B           -1.7726115098       48.6580463382      -16.2381440010  MEMB      232             0.0000000000
     27190       232  POPC      H15C           -1.4909582408       48.2512449547      -17.8803375725  MEMB      232             0.0000000000
     27191       232  POPC      C11            -0.8966557381       49.8352644882      -20.0344762327  MEMB      232             0.0000000000
     27192       232  POPC      H11A           -0.7960259087       50.4270134025      -20.9693707811  MEMB      232             0.0000000000
     27193       232  POPC      H11B           -1.9124869962       49.4084763068      -19.8921402754  MEMB      232             0.0000000000
     27194       232  POPC      P               1.4997484791       48.9994188102      -20.4970046096  MEMB      232             0.0000000000
     27195       232  POPC      O13             1.8741399672       50.4763022714      -20.4839194360  MEMB      232             0.0000000000
     27196       232  POPC      O14             1.5720499896       48.3876724289      -21.7925441932  MEMB      232             0.0000000000
     27197       232  POPC      O12            -0.0272085447       48.8035895533      -20.0612098583  MEMB      232             0.0000000000
     27198       232  POPC      O11             2.3119627222       48.2220996529      -19.4244490568  MEMB      232             0.0000000000
     27199       232  POPC      C1              2.6363913304       46.8033202792      -19.6091475219  MEMB      232             0.0000000000
     27200       232  POPC      HA              3.6957589678       46.7449365727      -19.9387725527  MEMB      232             0.0000000000
     27201       232  POPC      HB              1.9954244232       46.2726904610      -20.3452958044  MEMB      232             0.0000000000
     27202       232  POPC      C2              2.6939942769       46.0290763738      -18.2847007439  MEMB      232             0.0000000000
     27203       232  POPC      HS              2.8182786478       44.9275261387      -18.3586025830  MEMB      232             0.0000000000
     27204       232  POPC      O21             1.5055259996       46.2120492795      -17.3602729608  MEMB      232             0.0000000000
     27205       232  POPC      C21             0.3529226128       45.6846992711      -17.8118641075  MEMB      232             0.0000000000
     27206       232  POPC      O22             0.1350905773       45.2539069947      -18.9480094184  MEMB      232             0.0000000000
     27207       232  POPC      C22            -0.7584912738       45.5581825512      -16.6906302850  MEMB      232             0.0000000000
     27208       232  POPC      H2R            -1.6087796911       45.0454771287      -17.1890916355  MEMB      232             0.0000000000
     27209       232  POPC      H2S            -1.1933965397       46.5698353807      -16.5431969574  MEMB      232             0.0000000000
     27210       232  POPC      C3              3.9701235330       46.3842049029      -17.4489400999  MEMB      232             0.0000000000
     27211       232  POPC      HX              4.1621046017       47.4756454537      -17.5278203114  MEMB      232             0.0000000000
     27212       232  POPC      HY              4.7309145440       45.7805640439      -17.9885100864  MEMB      232             0.0000000000
     27213       232  POPC      O31             3.9988696493       45.9184538158      -16.1004746398  MEMB      232             0.0000000000
     27214       232  POPC      C31             3.6477368531       46.8129261955      -15.1440326694  MEMB      232             0.0000000000
     27215       232  POPC      O32             3.3735418335       47.9798238035      -15.3976802596  MEMB      232             0.0000000000
     27216       232  POPC      C32             3.6494139893       46.1960451663      -13.7402815578  MEMB      232             0.0000000000
     27217       232  POPC      H2X             4.6568025222       45.7429799238      -13.6210305645  MEMB      232             0.0000000000
     27218       232  POPC      H2Y             2.8853681327       45.3941476798      -13.8269754019  MEMB      232             0.0000000000
     27219       232  POPC      C23            -0.2252547025       44.8898947485      -15.3976839803  MEMB      232             0.0000000000
     27220       232  POPC      H3R             0.8533438837       45.1526609336      -15.3540933720  MEMB      232             0.0000000000
     27221       232  POPC      H3S            -0.3750586763       43.8021766447      -15.5672386759  MEMB      232             0.0000000000
     27222       232  POPC      C24            -0.8618827703       45.3830442469      -14.1228231519  MEMB      232             0.0000000000
     27223       232  POPC      H4R            -0.1002281938       45.1420505756      -13.3507318768  MEMB      232             0.0000000000
     27224       232  POPC      H4S            -1.7802569884       44.7953483854      -13.9094605975  MEMB      232             0.0000000000
     27225       232  POPC      C25            -1.1396273021       46.9318805276      -14.0258143500  MEMB      232             0.0000000000
     27226       232  POPC      H5R            -1.8608660770       47.1330864765      -14.8465775574  MEMB      232             0.0000000000
     27227       232  POPC      H5S            -0.1687455682       47.4164872452      -14.2642799564  MEMB      232             0.0000000000
     27228       232  POPC      C26            -1.8216510039       47.4584368735      -12.7967970709  MEMB      232             0.0000000000
     27229       232  POPC      H6R            -1.3155323994       47.2351134488      -11.8333182438  MEMB      232             0.0000000000
     27230       232  POPC      H6S            -2.7405981390       46.8341503058      -12.7856928093  MEMB      232             0.0000000000
     27231       232  POPC      C27            -2.1140357875       48.9679872801      -12.8539037315  MEMB      232             0.0000000000
     27232       232  POPC      H7R            -2.7333444362       49.2708786620      -11.9826776831  MEMB      232             0.0000000000
     27233       232  POPC      H7S            -2.8065908578       49.2085971167      -13.6886462835  MEMB      232             0.0000000000
     27234       232  POPC      C28            -0.8718104727       49.9088292308      -12.7716939240  MEMB      232             0.0000000000
     27235       232  POPC      H8R            -1.2855594446       50.9391640957      -12.7324131345  MEMB      232             0.0000000000
     27236       232  POPC      H8S            -0.2745173002       49.7018658291      -13.6853282356  MEMB      232             0.0000000000
     27237       232  POPC      C29             0.1567830571       49.5895762285      -11.6291682961  MEMB      232             0.0000000000
     27238       232  POPC      H91             1.0415881852       49.0029786271      -11.9173053597  MEMB      232             0.0000000000
     27239       232  POPC      C210            0.0157011872       50.0228589875      -10.3511431475  MEMB      232             0.0000000000
     27240       232  POPC      H101            0.7417108313       49.8492571105       -9.5431990903  MEMB      232             0.0000000000
     27241       232  POPC      C211           -1.0054108043       50.8298529608       -9.6796182610  MEMB      232             0.0000000000
     27242       232  POPC      H11R           -1.8098184977       51.1371841593      -10.3816125916  MEMB      232             0.0000000000
     27243       232  POPC      H11S           -0.3682816903       51.6751535167       -9.3421950607  MEMB      232             0.0000000000
     27244       232  POPC      C212           -1.7050567656       50.0445141214       -8.5546387975  MEMB      232             0.0000000000
     27245       232  POPC      H12R           -2.3547044266       49.2493771755       -8.9789453539  MEMB      232             0.0000000000
     27246       232  POPC      H12S           -2.4219876663       50.7762514774       -8.1246485384  MEMB      232             0.0000000000
     27247       232  POPC      C213           -0.9618973299       49.2912322861       -7.4631976923  MEMB      232             0.0000000000
     27248       232  POPC      H13R           -0.1515790076       49.9252832301       -7.0440498741  MEMB      232             0.0000000000
     27249       232  POPC      H13S           -0.5288800238       48.3634652094       -7.8945503738  MEMB      232             0.0000000000
     27250       232  POPC      C214           -1.8706865711       48.8703470801       -6.3214240667  MEMB      232             0.0000000000
     27251       232  POPC      H14R           -2.6407238836       49.6337595716       -6.0794225585  MEMB      232             0.0000000000
     27252       232  POPC      H14S           -1.2356308429       48.7552644938       -5.4171111377  MEMB      232             0.0000000000
     27253       232  POPC      C215           -2.6026851742       47.5509192379       -6.4963595471  MEMB      232             0.0000000000
     27254       232  POPC      H15R           -1.8891241982       46.7536175529       -6.7954609855  MEMB      232             0.0000000000
     27255       232  POPC      H15S           -3.4603492908       47.6805312633       -7.1905747113  MEMB      232             0.0000000000
     27256       232  POPC      C216           -3.2737653154       47.0536877089       -5.2401871129  MEMB      232             0.0000000000
     27257       232  POPC      H16R           -3.9807757001       46.2767084341       -5.6017956455  MEMB      232             0.0000000000
     27258       232  POPC      H16S           -3.8521731037       47.8788690478       -4.7723820226  MEMB      232             0.0000000000
     27259       232  POPC      C217           -2.4127825581       46.3950427503       -4.1297972816  MEMB      232             0.0000000000
     27260       232  POPC      H17R           -1.4597818919       45.9869109925       -4.5292205470  MEMB      232             0.0000000000
     27261       232  POPC      H17S           -2.8586521019       45.4521442208       -3.7470911339  MEMB      232             0.0000000000
     27262       232  POPC      C218           -2.2359623256       47.1811923273       -2.8332563471  MEMB      232             0.0000000000
     27263       232  POPC      H18R           -2.2492297238       48.2596085330       -3.1000205525  MEMB      232             0.0000000000
     27264       232  POPC      H18S           -1.2029102089       47.0009523812       -2.4663252204  MEMB      232             0.0000000000
     27265       232  POPC      H18T           -3.0697404454       46.9067724212       -2.1522051563  MEMB      232             0.0000000000
     27266       232  POPC      C33             3.4512608909       47.2939688238      -12.6630544489  MEMB      232             0.0000000000
     27267       232  POPC      H3X             2.5205278795       47.8213013860      -12.9630174005  MEMB      232             0.0000000000
     27268       232  POPC      H3Y             4.2428941628       48.0733018519      -12.6797147998  MEMB      232             0.0000000000
     27269       232  POPC      C34             3.2302832924       46.7171278815      -11.2515523977  MEMB      232             0.0000000000
     27270       232  POPC      H4X             3.5425245927       47.4634228189      -10.4900604399  MEMB      232             0.0000000000
     27271       232  POPC      H4Y             3.9384591746       45.8642577951      -11.1779311729  MEMB      232             0.0000000000
     27272       232  POPC      C35             1.8170567053       46.0706128355      -11.0702996058  MEMB      232             0.0000000000
     27273       232  POPC      H5X             1.7625862266       45.4082764644      -11.9606162667  MEMB      232             0.0000000000
     27274       232  POPC      H5Y             0.9261594018       46.7343831862      -11.0759494734  MEMB      232             0.0000000000
     27275       232  POPC      C36             1.6695954322       45.2406664402       -9.8190664225  MEMB      232             0.0000000000
     27276       232  POPC      H6X             2.4680553668       44.4687640996       -9.8498807600  MEMB      232             0.0000000000
     27277       232  POPC      H6Y             0.6831791373       44.7377701002       -9.9107129075  MEMB      232             0.0000000000
     27278       232  POPC      C37             2.0152964932       46.1554792680       -8.6364445079  MEMB      232             0.0000000000
     27279       232  POPC      H7X             1.3514851911       47.0256564364       -8.8274074748  MEMB      232             0.0000000000
     27280       232  POPC      H7Y             3.0734018928       46.4879432986       -8.5716226758  MEMB      232             0.0000000000
     27281       232  POPC      C38             1.6709013024       45.5661185593       -7.2821981192  MEMB      232             0.0000000000
     27282       232  POPC      H8X             1.8699902457       44.4751360611       -7.2155492521  MEMB      232             0.0000000000
     27283       232  POPC      H8Y             0.5627063607       45.5356492255       -7.2094190972  MEMB      232             0.0000000000
     27284       232  POPC      C39             2.3504498861       46.1188410040       -6.0481348990  MEMB      232             0.0000000000
     27285       232  POPC      H9X             3.3907548299       45.7462128072       -5.9330923252  MEMB      232             0.0000000000
     27286       232  POPC      H9Y             1.8388125060       45.6929956635       -5.1586387538  MEMB      232             0.0000000000
     27287       232  POPC      C310            2.2591464273       47.6815828244       -5.9134505301  MEMB      232             0.0000000000
     27288       232  POPC      H10X            1.1942119605       47.9933478252       -5.9685698010  MEMB      232             0.0000000000
     27289       232  POPC      H10Y            2.8903344798       48.1809690749       -6.6793070720  MEMB      232             0.0000000000
     27290       232  POPC      C311            2.8522092818       48.0637503406       -4.5093823139  MEMB      232             0.0000000000
     27291       232  POPC      H11X            2.8052235385       49.1736582951       -4.5241399711  MEMB      232             0.0000000000
     27292       232  POPC      H11Y            3.8465052870       47.6587216854       -4.2236408779  MEMB      232             0.0000000000
     27293       232  POPC      C312            2.0309256734       47.6601497106       -3.2947418797  MEMB      232             0.0000000000
     27294       232  POPC      H12X            2.3251943862       46.6148058752       -3.0602548148  MEMB      232             0.0000000000
     27295       232  POPC      H12Y            0.9250473587       47.7553366567       -3.3426310071  MEMB      232             0.0000000000
     27296       232  POPC      C313            2.5179625320       48.5801171305       -2.1387282098  MEMB      232             0.0000000000
     27297       232  POPC      H13X            1.9744040939       49.5345524579       -2.3058162975  MEMB      232             0.0000000000
     27298       232  POPC      H13Y            3.5849178910       48.8675038537       -2.2542094648  MEMB      232             0.0000000000
     27299       232  POPC      C314            2.2652332970       47.9029455524       -0.7747507523  MEMB      232             0.0000000000
     27300       232  POPC      H14X            3.0755216771       47.1453094029       -0.7135847280  MEMB      232             0.0000000000
     27301       232  POPC      H14Y            1.2315176153       47.5627162252       -0.5511499498  MEMB      232             0.0000000000
     27302       232  POPC      C315            2.6208485619       48.7985595209        0.3973782882  MEMB      232             0.0000000000
     27303       232  POPC      H15X            1.8661957710       49.6107543996        0.3255441803  MEMB      232             0.0000000000
     27304       232  POPC      H15Y            3.6084199492       49.2825320318        0.2399162776  MEMB      232             0.0000000000
     27305       232  POPC      C316            2.7884199080       48.0621804975        1.7051127517  MEMB      232             0.0000000000
     27306       232  POPC      H16X            3.7492966971       47.5047391791        1.7223129050  MEMB      232             0.0000000000
     27307       232  POPC      H16Y            1.8478433770       47.4923899807        1.8631486736  MEMB      232             0.0000000000
     27308       232  POPC      H16Z            2.7895669706       48.8778669429        2.4594171955  MEMB      232             0.0000000000
     27309       233  POPC      N              18.9941847952       46.3106462378      -19.2615578521  MEMB      233             0.0000000000
     27310       233  POPC      C12            18.8537705428       45.3940215574      -18.0681883869  MEMB      233             0.0000000000
     27311       233  POPC      H12A           18.1484053028       45.8238720298      -17.3724237098  MEMB      233             0.0000000000
     27312       233  POPC      H12B           19.8014429164       45.2538551356      -17.5695196916  MEMB      233             0.0000000000
     27313       233  POPC      C13            17.6849659521       46.5786884241      -19.9441048996  MEMB      233             0.0000000000
     27314       233  POPC      H13A           16.8892847500       46.5726820332      -19.2138616157  MEMB      233             0.0000000000
     27315       233  POPC      H13B           17.8091484120       47.5473350562      -20.4053019685  MEMB      233             0.0000000000
     27316       233  POPC      H13C           17.5130179412       45.7873482944      -20.6586778645  MEMB      233             0.0000000000
     27317       233  POPC      C14            19.5149727570       47.6635205287      -18.7670642063  MEMB      233             0.0000000000
     27318       233  POPC      H14A           19.4228270905       48.2865405118      -19.6444210697  MEMB      233             0.0000000000
     27319       233  POPC      H14B           18.9896109264       47.9967922475      -17.8842703629  MEMB      233             0.0000000000
     27320       233  POPC      H14C           20.5578769002       47.5825019193      -18.4983875225  MEMB      233             0.0000000000
     27321       233  POPC      C15            19.9870000513       45.8446351635      -20.3336607331  MEMB      233             0.0000000000
     27322       233  POPC      H15A           20.9756184383       45.9488167148      -19.9115469252  MEMB      233             0.0000000000
     27323       233  POPC      H15B           19.8631784747       46.3377175137      -21.2865185491  MEMB      233             0.0000000000
     27324       233  POPC      H15C           19.7851491967       44.7949162349      -20.4877590362  MEMB      233             0.0000000000
     27325       233  POPC      C11            18.4417581734       43.9241287703      -18.4334978055  MEMB      233             0.0000000000
     27326       233  POPC      H11A           18.3447334660       43.3719790832      -17.4743117133  MEMB      233             0.0000000000
     27327       233  POPC      H11B           19.3260933086       43.3960919837      -18.8499706910  MEMB      233             0.0000000000
     27328       233  POPC      P              16.3016634755       42.5845656830      -18.9093038235  MEMB      233             0.0000000000
     27329       233  POPC      O13            16.8693727689       41.2568460332      -19.2486921563  MEMB      233             0.0000000000
     27330       233  POPC      O14            14.9195690055       42.9661475555      -19.3594573797  MEMB      233             0.0000000000
     27331       233  POPC      O12            17.3506600023       43.7086883009      -19.3685582147  MEMB      233             0.0000000000
     27332       233  POPC      O11            16.2623171753       42.7026160426      -17.3059145424  MEMB      233             0.0000000000
     27333       233  POPC      C1             15.5074213599       43.8186553776      -16.8065347603  MEMB      233             0.0000000000
     27334       233  POPC      HA             14.4583092255       43.8699225794      -17.1685521527  MEMB      233             0.0000000000
     27335       233  POPC      HB             16.0085286396       44.7685962593      -17.0908318149  MEMB      233             0.0000000000
     27336       233  POPC      C2             15.4885531665       43.6720547024      -15.2439689946  MEMB      233             0.0000000000
     27337       233  POPC      HS             14.8338995319       44.5200599027      -14.9496278536  MEMB      233             0.0000000000
     27338       233  POPC      O21            16.7756972960       43.7696025570      -14.6096100521  MEMB      233             0.0000000000
     27339       233  POPC      C21            17.3610487751       44.9452541075      -14.7050588005  MEMB      233             0.0000000000
     27340       233  POPC      O22            16.7495451215       46.0252529817      -14.7469031563  MEMB      233             0.0000000000
     27341       233  POPC      C22            18.9029078591       44.7822968112      -14.5735160028  MEMB      233             0.0000000000
     27342       233  POPC      H2R            19.3711574273       45.7845383669      -14.6763521229  MEMB      233             0.0000000000
     27343       233  POPC      H2S            19.2896307406       44.2537459864      -15.4709569930  MEMB      233             0.0000000000
     27344       233  POPC      C3             14.8430524756       42.3283490052      -14.7455710824  MEMB      233             0.0000000000
     27345       233  POPC      HX             15.5032231648       41.5209031959      -15.1283594961  MEMB      233             0.0000000000
     27346       233  POPC      HY             13.8897985746       42.2805668101      -15.3142050771  MEMB      233             0.0000000000
     27347       233  POPC      O31            14.5647118327       42.1799588151      -13.2978889683  MEMB      233             0.0000000000
     27348       233  POPC      C31            13.5182677502       42.8569578352      -12.9147855549  MEMB      233             0.0000000000
     27349       233  POPC      O32            12.7988917343       43.4975053532      -13.6482676756  MEMB      233             0.0000000000
     27350       233  POPC      C32            13.3525572812       42.9072177115      -11.3907365104  MEMB      233             0.0000000000
     27351       233  POPC      H2X            12.4787156636       42.2575178911      -11.1702549479  MEMB      233             0.0000000000
     27352       233  POPC      H2Y            13.1166680497       43.9704743601      -11.1712773865  MEMB      233             0.0000000000
     27353       233  POPC      C23            19.2180512953       44.1047869967      -13.2752415161  MEMB      233             0.0000000000
     27354       233  POPC      H3R            19.1905740399       43.0135149266      -13.4818601995  MEMB      233             0.0000000000
     27355       233  POPC      H3S            18.4935607123       44.4022663675      -12.4872437420  MEMB      233             0.0000000000
     27356       233  POPC      C24            20.6378820295       44.3810460593      -12.7301926368  MEMB      233             0.0000000000
     27357       233  POPC      H4R            21.2225030369       44.5560174120      -13.6585912797  MEMB      233             0.0000000000
     27358       233  POPC      H4S            20.9919610508       43.5105826901      -12.1375351770  MEMB      233             0.0000000000
     27359       233  POPC      C25            20.7709693328       45.7293032125      -12.0123338565  MEMB      233             0.0000000000
     27360       233  POPC      H5R            20.1805079224       46.5269657520      -12.5117445299  MEMB      233             0.0000000000
     27361       233  POPC      H5S            21.8103830613       46.1063955644      -12.1206916681  MEMB      233             0.0000000000
     27362       233  POPC      C26            20.4136157271       45.6889182474      -10.5612296414  MEMB      233             0.0000000000
     27363       233  POPC      H6R            21.0894130818       45.0195469989       -9.9871558815  MEMB      233             0.0000000000
     27364       233  POPC      H6S            19.3790235731       45.3020366434      -10.4418043412  MEMB      233             0.0000000000
     27365       233  POPC      C27            20.3931337371       47.0285509819       -9.7831832426  MEMB      233             0.0000000000
     27366       233  POPC      H7R            19.6998710522       47.7236301811      -10.3033493432  MEMB      233             0.0000000000
     27367       233  POPC      H7S            21.4345689629       47.4014008832       -9.8867062671  MEMB      233             0.0000000000
     27368       233  POPC      C28            20.0120679548       46.8960005647       -8.2860065868  MEMB      233             0.0000000000
     27369       233  POPC      H8R            20.7750634292       46.2452505933       -7.8077982400  MEMB      233             0.0000000000
     27370       233  POPC      H8S            19.0427365733       46.3592616206       -8.2045879112  MEMB      233             0.0000000000
     27371       233  POPC      C29            19.8550469152       48.2535883190       -7.6355037133  MEMB      233             0.0000000000
     27372       233  POPC      H91            20.1102083725       49.0093623509       -8.3929322675  MEMB      233             0.0000000000
     27373       233  POPC      C210           19.6152075999       48.5401515574       -6.3382441742  MEMB      233             0.0000000000
     27374       233  POPC      H101           19.7010617716       49.6124248320       -6.1083334732  MEMB      233             0.0000000000
     27375       233  POPC      C211           19.3950503412       47.6628036936       -5.1660749902  MEMB      233             0.0000000000
     27376       233  POPC      H11R           20.1016555766       46.8170041599       -5.3062643900  MEMB      233             0.0000000000
     27377       233  POPC      H11S           18.3586311253       47.2696017447       -5.0915868824  MEMB      233             0.0000000000
     27378       233  POPC      C212           19.7816502553       48.3303023337       -3.8314503161  MEMB      233             0.0000000000
     27379       233  POPC      H12R           19.4979587061       49.4044698284       -3.8293453175  MEMB      233             0.0000000000
     27380       233  POPC      H12S           20.8716747720       48.1978733779       -3.6622455077  MEMB      233             0.0000000000
     27381       233  POPC      C213           18.9076524446       47.8405163148       -2.6534928068  MEMB      233             0.0000000000
     27382       233  POPC      H13R           18.7469045447       46.7464307660       -2.7605305138  MEMB      233             0.0000000000
     27383       233  POPC      H13S           17.9054175744       48.3144881984       -2.7255823122  MEMB      233             0.0000000000
     27384       233  POPC      C214           19.5415887883       47.9429358717       -1.2444663168  MEMB      233             0.0000000000
     27385       233  POPC      H14R           19.5241607325       48.9477073394       -0.7707046503  MEMB      233             0.0000000000
     27386       233  POPC      H14S           20.6022588972       47.6506187648       -1.3989022581  MEMB      233             0.0000000000
     27387       233  POPC      C215           18.9436689905       46.9832540950       -0.2065095705  MEMB      233             0.0000000000
     27388       233  POPC      H15R           18.8668965033       45.9653699390       -0.6450741601  MEMB      233             0.0000000000
     27389       233  POPC      H15S           17.9224802319       47.2771446491        0.1177176605  MEMB      233             0.0000000000
     27390       233  POPC      C216           19.7143389219       46.9033398533        1.0594647324  MEMB      233             0.0000000000
     27391       233  POPC      H16R           19.4316339021       47.8285879744        1.6056463368  MEMB      233             0.0000000000
     27392       233  POPC      H16S           20.8248352660       46.8880281726        1.0297263390  MEMB      233             0.0000000000
     27393       233  POPC      C217           19.1496571334       45.7775747688        2.0077040805  MEMB      233             0.0000000000
     27394       233  POPC      H17R           18.0469167624       45.8999021955        1.9500794913  MEMB      233             0.0000000000
     27395       233  POPC      H17S           19.4805316568       46.1607221788        2.9966638006  MEMB      233             0.0000000000
     27396       233  POPC      C218           19.5991341090       44.3062417075        1.8390624405  MEMB      233             0.0000000000
     27397       233  POPC      H18R           20.6554834203       44.1230342333        2.1304066778  MEMB      233             0.0000000000
     27398       233  POPC      H18S           19.3078536561       43.9181390063        0.8396355898  MEMB      233             0.0000000000
     27399       233  POPC      H18T           19.0111159708       43.7365570788        2.5900716197  MEMB      233             0.0000000000
     27400       233  POPC      C33            14.5861466880       42.5103319750      -10.5583292124  MEMB      233             0.0000000000
     27401       233  POPC      H3X            14.9230655124       41.5078209507      -10.8985919204  MEMB      233             0.0000000000
     27402       233  POPC      H3Y            14.2861764883       42.3407402468       -9.5021206119  MEMB      233             0.0000000000
     27403       233  POPC      C34            15.7454211283       43.4083520584      -10.6970093154  MEMB      233             0.0000000000
     27404       233  POPC      H4X            15.5467706731       44.4828929119      -10.4964572698  MEMB      233             0.0000000000
     27405       233  POPC      H4Y            16.0110579708       43.4108165999      -11.7757829582  MEMB      233             0.0000000000
     27406       233  POPC      C35            17.0626697267       43.0844978548       -9.9643328604  MEMB      233             0.0000000000
     27407       233  POPC      H5X            16.7602526806       43.1849984883       -8.9000182426  MEMB      233             0.0000000000
     27408       233  POPC      H5Y            17.9435311690       43.7373709296      -10.1436676400  MEMB      233             0.0000000000
     27409       233  POPC      C36            17.5845602624       41.5987603258      -10.0302470862  MEMB      233             0.0000000000
     27410       233  POPC      H6X            17.9238677985       41.3496026211      -11.0584064552  MEMB      233             0.0000000000
     27411       233  POPC      H6Y            16.7912102201       40.8427249322       -9.8476891848  MEMB      233             0.0000000000
     27412       233  POPC      C37            18.8510406809       41.4585677132       -9.2000237618  MEMB      233             0.0000000000
     27413       233  POPC      H7X            19.4179930777       42.4118207864       -9.1352598581  MEMB      233             0.0000000000
     27414       233  POPC      H7Y            19.3198019977       40.5203570098       -9.5665543171  MEMB      233             0.0000000000
     27415       233  POPC      C38            18.5049053345       41.0373265974       -7.7499460344  MEMB      233             0.0000000000
     27416       233  POPC      H8X            19.2148070829       40.2702964985       -7.3730831960  MEMB      233             0.0000000000
     27417       233  POPC      H8Y            17.4706310967       40.6323553481       -7.7255190437  MEMB      233             0.0000000000
     27418       233  POPC      C39            18.4992083186       42.2414864828       -6.7088882713  MEMB      233             0.0000000000
     27419       233  POPC      H9X            17.8697041022       43.0237958458       -7.1843220417  MEMB      233             0.0000000000
     27420       233  POPC      H9Y            19.4560008588       42.8004456188       -6.7891013360  MEMB      233             0.0000000000
     27421       233  POPC      C310           18.3275964284       41.7808142589       -5.2973445715  MEMB      233             0.0000000000
     27422       233  POPC      H10X           19.1473853166       41.0661209369       -5.0704506905  MEMB      233             0.0000000000
     27423       233  POPC      H10Y           17.2819420796       41.4754764160       -5.0789476484  MEMB      233             0.0000000000
     27424       233  POPC      C311           18.4972541432       42.8817150409       -4.2443342400  MEMB      233             0.0000000000
     27425       233  POPC      H11X           17.7019739942       43.6216375242       -4.4774975838  MEMB      233             0.0000000000
     27426       233  POPC      H11Y           19.4361422480       43.3713003097       -4.5806624911  MEMB      233             0.0000000000
     27427       233  POPC      C312           18.5250743359       42.4620172110       -2.7744851438  MEMB      233             0.0000000000
     27428       233  POPC      H12X           19.2494341766       43.0919436462       -2.2151836511  MEMB      233             0.0000000000
     27429       233  POPC      H12Y           18.7318165189       41.4104266728       -2.4816781303  MEMB      233             0.0000000000
     27430       233  POPC      C313           17.1676704829       42.8110907370       -2.1546076064  MEMB      233             0.0000000000
     27431       233  POPC      H13X           17.0181504865       42.0771039882       -1.3341021693  MEMB      233             0.0000000000
     27432       233  POPC      H13Y           16.4806423310       42.6764282088       -3.0172661784  MEMB      233             0.0000000000
     27433       233  POPC      C314           16.9708859452       44.2550077612       -1.8598447467  MEMB      233             0.0000000000
     27434       233  POPC      H14X           17.3055040968       44.8470017349       -2.7384189451  MEMB      233             0.0000000000
     27435       233  POPC      H14Y           17.7615612093       44.4871469111       -1.1146823563  MEMB      233             0.0000000000
     27436       233  POPC      C315           15.6361165040       44.7142370277       -1.2655257405  MEMB      233             0.0000000000
     27437       233  POPC      H15X           15.9762999029       45.5309670317       -0.5935529311  MEMB      233             0.0000000000
     27438       233  POPC      H15Y           15.2862836433       43.9062033299       -0.5880152062  MEMB      233             0.0000000000
     27439       233  POPC      C316           14.4874010577       45.1070443421       -2.2177974003  MEMB      233             0.0000000000
     27440       233  POPC      H16X           14.3126170229       44.2380990493       -2.8876534153  MEMB      233             0.0000000000
     27441       233  POPC      H16Y           14.6838579285       45.9429443805       -2.9227779626  MEMB      233             0.0000000000
     27442       233  POPC      H16Z           13.5784554507       45.4623935516       -1.6868871747  MEMB      233             0.0000000000
     27443       234  POPC      N              33.1859253912       31.5301140033      -20.2595767139  MEMB      234             0.0000000000
     27444       234  POPC      C12            34.6920118690       31.0790942909      -20.4571890924  MEMB      234             0.0000000000
     27445       234  POPC      H12A           34.9233277100       31.0389297230      -21.5113616186  MEMB      234             0.0000000000
     27446       234  POPC      H12B           34.7868007526       30.0623733933      -20.1054880173  MEMB      234             0.0000000000
     27447       234  POPC      C13            32.6523137740       31.1271565873      -18.8782293555  MEMB      234             0.0000000000
     27448       234  POPC      H13A           31.6832066789       31.5860927570      -18.7493544252  MEMB      234             0.0000000000
     27449       234  POPC      H13B           32.5853321216       30.0500219756      -18.9193932356  MEMB      234             0.0000000000
     27450       234  POPC      H13C           33.3255803181       31.4905775472      -18.1159712115  MEMB      234             0.0000000000
     27451       234  POPC      C14            32.9263711098       33.0181819470      -20.5727952086  MEMB      234             0.0000000000
     27452       234  POPC      H14A           31.8775712996       33.0265312991      -20.8303782080  MEMB      234             0.0000000000
     27453       234  POPC      H14B           33.2112332535       33.7041863467      -19.7887979884  MEMB      234             0.0000000000
     27454       234  POPC      H14C           33.4836826577       33.2861874048      -21.4582199197  MEMB      234             0.0000000000
     27455       234  POPC      C15            32.3757395321       30.6477071285      -21.2115644052  MEMB      234             0.0000000000
     27456       234  POPC      H15A           32.9962098621       30.5536747954      -22.0905266953  MEMB      234             0.0000000000
     27457       234  POPC      H15B           31.5074559279       31.1863275135      -21.5613807745  MEMB      234             0.0000000000
     27458       234  POPC      H15C           32.0592530572       29.6893421276      -20.8271523468  MEMB      234             0.0000000000
     27459       234  POPC      C11            35.7423611038       31.9832286998      -19.7865617813  MEMB      234             0.0000000000
     27460       234  POPC      H11A           35.6089248845       33.0513787765      -20.0614637908  MEMB      234             0.0000000000
     27461       234  POPC      H11B           36.7774026799       31.7223512479      -20.0947058859  MEMB      234             0.0000000000
     27462       234  POPC      P              35.9895714949       30.7200370911      -17.4877278443  MEMB      234             0.0000000000
     27463       234  POPC      O13            35.2762949282       29.4881106942      -17.9449966937  MEMB      234             0.0000000000
     27464       234  POPC      O14            35.8932087003       31.1602640416      -16.0912737298  MEMB      234             0.0000000000
     27465       234  POPC      O12            35.4846867021       31.9536290108      -18.3743984306  MEMB      234             0.0000000000
     27466       234  POPC      O11            37.5056141562       30.4811542049      -17.9356867159  MEMB      234             0.0000000000
     27467       234  POPC      C1             38.3533259767       31.5351734475      -17.4890401371  MEMB      234             0.0000000000
     27468       234  POPC      HA             37.8539160056       32.3370447912      -16.9043067143  MEMB      234             0.0000000000
     27469       234  POPC      HB             38.7689025075       32.1077479176      -18.3456470844  MEMB      234             0.0000000000
     27470       234  POPC      C2             39.5246890306       31.0453715996      -16.6324699983  MEMB      234             0.0000000000
     27471       234  POPC      HS             40.0701111586       30.2088578340      -17.1193788905  MEMB      234             0.0000000000
     27472       234  POPC      O21            39.0692365566       30.7527144595      -15.3442534421  MEMB      234             0.0000000000
     27473       234  POPC      C21            39.7687991403       29.9246499792      -14.6364950573  MEMB      234             0.0000000000
     27474       234  POPC      O22            40.8980567458       29.4986693642      -14.9965337917  MEMB      234             0.0000000000
     27475       234  POPC      C22            38.9889663627       29.5575733085      -13.3517020987  MEMB      234             0.0000000000
     27476       234  POPC      H2R            39.7395170004       28.9925655144      -12.7586075638  MEMB      234             0.0000000000
     27477       234  POPC      H2S            38.1237019006       28.9169027078      -13.6258912406  MEMB      234             0.0000000000
     27478       234  POPC      C3             40.6076706676       32.2013480020      -16.5809604454  MEMB      234             0.0000000000
     27479       234  POPC      HX             41.1471163338       32.3285433460      -17.5438418750  MEMB      234             0.0000000000
     27480       234  POPC      HY             41.3477158688       31.9744031013      -15.7839975592  MEMB      234             0.0000000000
     27481       234  POPC      O31            39.9661624745       33.4305326787      -16.3587201022  MEMB      234             0.0000000000
     27482       234  POPC      C31            39.7050113440       33.8585279464      -15.1067031060  MEMB      234             0.0000000000
     27483       234  POPC      O32            39.9517289209       33.3494511210      -14.0398239640  MEMB      234             0.0000000000
     27484       234  POPC      C32            38.8200034902       35.0851752747      -15.2045392861  MEMB      234             0.0000000000
     27485       234  POPC      H2X            38.3102096913       35.1697388030      -16.1880435277  MEMB      234             0.0000000000
     27486       234  POPC      H2Y            39.4312829135       36.0122638902      -15.1704032292  MEMB      234             0.0000000000
     27487       234  POPC      C23            38.4622938834       30.7404087214      -12.5515816091  MEMB      234             0.0000000000
     27488       234  POPC      H3R            37.6963590604       31.2964181393      -13.1334048555  MEMB      234             0.0000000000
     27489       234  POPC      H3S            39.3101835637       31.4535047640      -12.4685287119  MEMB      234             0.0000000000
     27490       234  POPC      C24            37.8932381730       30.2931724340      -11.1402342554  MEMB      234             0.0000000000
     27491       234  POPC      H4R            37.8764380310       31.1822619717      -10.4742317721  MEMB      234             0.0000000000
     27492       234  POPC      H4S            38.5939714863       29.5802999393      -10.6553557894  MEMB      234             0.0000000000
     27493       234  POPC      C25            36.5114784039       29.6343097315      -11.1467772414  MEMB      234             0.0000000000
     27494       234  POPC      H5R            36.6403046592       28.7337024587      -11.7844537493  MEMB      234             0.0000000000
     27495       234  POPC      H5S            35.7514057319       30.3793344549      -11.4654440851  MEMB      234             0.0000000000
     27496       234  POPC      C26            36.1704361360       29.1808384387       -9.7411844773  MEMB      234             0.0000000000
     27497       234  POPC      H6R            35.7772897319       30.0992318503       -9.2550666623  MEMB      234             0.0000000000
     27498       234  POPC      H6S            36.9925960354       28.8017607162       -9.0972331696  MEMB      234             0.0000000000
     27499       234  POPC      C27            35.0888820142       28.1746290148       -9.7424795726  MEMB      234             0.0000000000
     27500       234  POPC      H7R            35.2242838810       27.2705232961      -10.3738113569  MEMB      234             0.0000000000
     27501       234  POPC      H7S            34.1690139889       28.7137780165      -10.0547014205  MEMB      234             0.0000000000
     27502       234  POPC      C28            34.8248843823       27.5818342490       -8.2595776326  MEMB      234             0.0000000000
     27503       234  POPC      H8R            33.7643601918       27.2623795794       -8.3465171734  MEMB      234             0.0000000000
     27504       234  POPC      H8S            34.8170589191       28.4099192933       -7.5189460545  MEMB      234             0.0000000000
     27505       234  POPC      C29            35.6408333573       26.4077437124       -7.7213928619  MEMB      234             0.0000000000
     27506       234  POPC      H91            35.4047754589       25.3570030404       -7.9454934087  MEMB      234             0.0000000000
     27507       234  POPC      C210           36.6864613622       26.5995428976       -6.7663760485  MEMB      234             0.0000000000
     27508       234  POPC      H101           37.3246798444       25.7608751508       -6.4512367433  MEMB      234             0.0000000000
     27509       234  POPC      C211           37.0942066730       27.8800389016       -6.0385944226  MEMB      234             0.0000000000
     27510       234  POPC      H11R           36.4516628085       28.0697110964       -5.1523193712  MEMB      234             0.0000000000
     27511       234  POPC      H11S           36.9447064424       28.7866196579       -6.6631594263  MEMB      234             0.0000000000
     27512       234  POPC      C212           38.5891971707       27.9778636008       -5.7351865075  MEMB      234             0.0000000000
     27513       234  POPC      H12R           39.1371071072       27.9015472147       -6.6986661118  MEMB      234             0.0000000000
     27514       234  POPC      H12S           38.7320384995       27.1417917274       -5.0176203063  MEMB      234             0.0000000000
     27515       234  POPC      C213           39.0270998841       29.2876787180       -5.1201270219  MEMB      234             0.0000000000
     27516       234  POPC      H13R           38.0980784504       29.8415730208       -4.8662739474  MEMB      234             0.0000000000
     27517       234  POPC      H13S           39.5721420032       29.7985763950       -5.9424609856  MEMB      234             0.0000000000
     27518       234  POPC      C214           40.0159596707       29.1143986990       -3.8927621002  MEMB      234             0.0000000000
     27519       234  POPC      H14R           40.7974334485       28.3300211414       -3.9842598377  MEMB      234             0.0000000000
     27520       234  POPC      H14S           39.3144034512       28.7584793747       -3.1082496884  MEMB      234             0.0000000000
     27521       234  POPC      C215           40.6158494249       30.4330596242       -3.5631039748  MEMB      234             0.0000000000
     27522       234  POPC      H15R           39.8383006776       31.2211703592       -3.6559480819  MEMB      234             0.0000000000
     27523       234  POPC      H15S           41.4243557641       30.4615340207       -4.3245675324  MEMB      234             0.0000000000
     27524       234  POPC      C216           41.2095072986       30.5004425417       -2.1140588913  MEMB      234             0.0000000000
     27525       234  POPC      H16R           41.9548049516       29.7111001743       -1.8778558046  MEMB      234             0.0000000000
     27526       234  POPC      H16S           40.2288611349       30.3724872501       -1.6078165010  MEMB      234             0.0000000000
     27527       234  POPC      C217           41.7854132757       31.8332794776       -1.6734728996  MEMB      234             0.0000000000
     27528       234  POPC      H17R           41.0732679871       32.6413793046       -1.9457686121  MEMB      234             0.0000000000
     27529       234  POPC      H17S           42.6849352390       32.1147744995       -2.2616407585  MEMB      234             0.0000000000
     27530       234  POPC      C218           41.9758190742       31.9368136344       -0.1270848075  MEMB      234             0.0000000000
     27531       234  POPC      H18R           42.0142227944       32.9516161613        0.3234937578  MEMB      234             0.0000000000
     27532       234  POPC      H18S           42.9683650312       31.4835144607        0.0819441997  MEMB      234             0.0000000000
     27533       234  POPC      H18T           41.1815008685       31.3869195195        0.4215453591  MEMB      234             0.0000000000
     27534       234  POPC      C33            37.7599821980       35.2473833597      -14.0947153615  MEMB      234             0.0000000000
     27535       234  POPC      H3X            37.4917721274       36.3237228458      -14.0324447504  MEMB      234             0.0000000000
     27536       234  POPC      H3Y            38.2681955096       35.0694979531      -13.1229141394  MEMB      234             0.0000000000
     27537       234  POPC      C34            36.4739313712       34.3369647009      -14.2295707019  MEMB      234             0.0000000000
     27538       234  POPC      H4X            36.8533869596       33.2944996814      -14.1695602494  MEMB      234             0.0000000000
     27539       234  POPC      H4Y            35.8929021661       34.4683828296      -15.1673636471  MEMB      234             0.0000000000
     27540       234  POPC      C35            35.4542959163       34.7219350831      -13.2004063222  MEMB      234             0.0000000000
     27541       234  POPC      H5X            34.6216087803       33.9866250471      -13.2169060812  MEMB      234             0.0000000000
     27542       234  POPC      H5Y            35.0758432240       35.7475349096      -13.3984951900  MEMB      234             0.0000000000
     27543       234  POPC      C36            35.9924076894       34.7475239523      -11.7521726412  MEMB      234             0.0000000000
     27544       234  POPC      H6X            36.6178917506       35.6106536844      -11.4389673872  MEMB      234             0.0000000000
     27545       234  POPC      H6Y            36.5199881203       33.7848366166      -11.5812550051  MEMB      234             0.0000000000
     27546       234  POPC      C37            34.8360011120       34.7984150603      -10.7170110283  MEMB      234             0.0000000000
     27547       234  POPC      H7X            34.1577442369       33.9240963346      -10.8162852645  MEMB      234             0.0000000000
     27548       234  POPC      H7Y            34.2831944985       35.7185810380      -11.0034016689  MEMB      234             0.0000000000
     27549       234  POPC      C38            35.2402056153       34.8993114707       -9.2373398936  MEMB      234             0.0000000000
     27550       234  POPC      H8X            34.3890258741       35.2904015908       -8.6399604310  MEMB      234             0.0000000000
     27551       234  POPC      H8Y            36.0408198288       35.6510041740       -9.0691254970  MEMB      234             0.0000000000
     27552       234  POPC      C39            35.6014394932       33.5418587715       -8.6139767986  MEMB      234             0.0000000000
     27553       234  POPC      H9X            36.6243417981       33.3487047135       -9.0021562844  MEMB      234             0.0000000000
     27554       234  POPC      H9Y            34.9889244542       32.6679052495       -8.9227668381  MEMB      234             0.0000000000
     27555       234  POPC      C310           35.7653275476       33.6797438025       -7.1509655357  MEMB      234             0.0000000000
     27556       234  POPC      H10X           34.8114107458       33.6967505871       -6.5816904029  MEMB      234             0.0000000000
     27557       234  POPC      H10Y           36.2429260872       34.6805510035       -7.0831014211  MEMB      234             0.0000000000
     27558       234  POPC      C311           36.6972416587       32.6854387263       -6.5335583284  MEMB      234             0.0000000000
     27559       234  POPC      H11X           37.6782865740       32.8231623706       -7.0364543381  MEMB      234             0.0000000000
     27560       234  POPC      H11Y           36.3426874265       31.6372736304       -6.6333705368  MEMB      234             0.0000000000
     27561       234  POPC      C312           36.9790955872       32.9754492313       -5.0542313960  MEMB      234             0.0000000000
     27562       234  POPC      H12X           37.6417606434       33.8621682472       -5.1487057172  MEMB      234             0.0000000000
     27563       234  POPC      H12Y           37.6178777265       32.1593490345       -4.6539081479  MEMB      234             0.0000000000
     27564       234  POPC      C313           35.8859433057       33.1916578688       -4.0193933160  MEMB      234             0.0000000000
     27565       234  POPC      H13X           35.2515053648       34.0487131271       -4.3312674680  MEMB      234             0.0000000000
     27566       234  POPC      H13Y           36.5328224814       33.3719777649       -3.1343210385  MEMB      234             0.0000000000
     27567       234  POPC      C314           34.9898184115       31.8410863736       -3.7357709716  MEMB      234             0.0000000000
     27568       234  POPC      H14X           35.6151834878       30.9414754692       -3.5515424263  MEMB      234             0.0000000000
     27569       234  POPC      H14Y           34.4638514076       31.5678671481       -4.6754680715  MEMB      234             0.0000000000
     27570       234  POPC      C315           33.8312705362       32.1218997580       -2.7424910388  MEMB      234             0.0000000000
     27571       234  POPC      H15X           32.9756407538       31.5187074268       -3.1144824122  MEMB      234             0.0000000000
     27572       234  POPC      H15Y           33.6697451939       33.2209586929       -2.7598132705  MEMB      234             0.0000000000
     27573       234  POPC      C316           34.1658478728       31.7396676925       -1.2524957280  MEMB      234             0.0000000000
     27574       234  POPC      H16X           33.4265315262       32.2992443495       -0.6404454829  MEMB      234             0.0000000000
     27575       234  POPC      H16Y           35.1833173141       32.1497055186       -1.0765809502  MEMB      234             0.0000000000
     27576       234  POPC      H16Z           34.0792636487       30.6480987285       -1.0646096978  MEMB      234             0.0000000000
     27577       235  POPC      N              50.0224408808        0.7138521967      -21.0707988751  MEMB      235             0.0000000000
     27578       235  POPC      C12            50.1400910293       -0.2933232556      -19.9585666072  MEMB      235             0.0000000000
     27579       235  POPC      H12A           51.0386831770       -0.8866846146      -19.8757733756  MEMB      235             0.0000000000
     27580       235  POPC      H12B           49.3350762664       -0.9171065258      -20.3180741553  MEMB      235             0.0000000000
     27581       235  POPC      C13            50.8419695391        2.0057866275      -20.9339535394  MEMB      235             0.0000000000
     27582       235  POPC      H13A           50.7413084121        2.2057451488      -19.8774102007  MEMB      235             0.0000000000
     27583       235  POPC      H13B           51.8519164667        1.7263254781      -21.1953128938  MEMB      235             0.0000000000
     27584       235  POPC      H13C           50.4646280857        2.7770350791      -21.5890788631  MEMB      235             0.0000000000
     27585       235  POPC      C14            50.4725117688        0.0463104166      -22.3659840657  MEMB      235             0.0000000000
     27586       235  POPC      H14A           51.4775193724       -0.3361715876      -22.2656486948  MEMB      235             0.0000000000
     27587       235  POPC      H14B           49.8032565694       -0.7873636921      -22.5192324954  MEMB      235             0.0000000000
     27588       235  POPC      H14C           50.2603861697        0.6504822746      -23.2356848148  MEMB      235             0.0000000000
     27589       235  POPC      C15            48.5480969824        1.0411589288      -21.2668164834  MEMB      235             0.0000000000
     27590       235  POPC      H15A           48.3721592508        1.7286678073      -22.0809279802  MEMB      235             0.0000000000
     27591       235  POPC      H15B           48.1938894067        1.5400913711      -20.3768708172  MEMB      235             0.0000000000
     27592       235  POPC      H15C           48.0039578551        0.1115737954      -21.3454555484  MEMB      235             0.0000000000
     27593       235  POPC      C11            49.7874284367        0.2115285995      -18.5750413684  MEMB      235             0.0000000000
     27594       235  POPC      H11A           50.4844348246        1.0275764539      -18.2876931178  MEMB      235             0.0000000000
     27595       235  POPC      H11B           50.2204572235       -0.5984663408      -17.9499691693  MEMB      235             0.0000000000
     27596       235  POPC      P              47.8181177115        0.3505793332      -16.9019672963  MEMB      235             0.0000000000
     27597       235  POPC      O13            46.3942731882        0.6505099172      -16.7475583112  MEMB      235             0.0000000000
     27598       235  POPC      O14            48.7583473405        1.1442996211      -16.1952376806  MEMB      235             0.0000000000
     27599       235  POPC      O12            48.3553232828        0.4621221772      -18.3932515126  MEMB      235             0.0000000000
     27600       235  POPC      O11            47.9569457871       -1.1932719752      -16.5908242583  MEMB      235             0.0000000000
     27601       235  POPC      C1             47.9482516970       -2.2111371936      -17.5616629594  MEMB      235             0.0000000000
     27602       235  POPC      HA             48.7859622521       -2.1788881163      -18.2907185234  MEMB      235             0.0000000000
     27603       235  POPC      HB             46.9404408039       -2.3726925408      -18.0004546270  MEMB      235             0.0000000000
     27604       235  POPC      C2             48.2838415958       -3.5812434442      -16.7940225521  MEMB      235             0.0000000000
     27605       235  POPC      HS             47.7527905059       -4.4264054113      -17.2818821745  MEMB      235             0.0000000000
     27606       235  POPC      O21            47.8930942472       -3.5689255101      -15.4278626709  MEMB      235             0.0000000000
     27607       235  POPC      C21            46.5579553921       -3.8226552936      -15.2605861857  MEMB      235             0.0000000000
     27608       235  POPC      O22            45.7445816431       -3.9188893425      -16.1564219248  MEMB      235             0.0000000000
     27609       235  POPC      C22            46.2251723118       -3.9059275208      -13.7515573212  MEMB      235             0.0000000000
     27610       235  POPC      H2R            45.1747492524       -4.2676972721      -13.7441344632  MEMB      235             0.0000000000
     27611       235  POPC      H2S            46.3149382429       -2.8676796574      -13.3664538556  MEMB      235             0.0000000000
     27612       235  POPC      C3             49.8170989272       -3.9047867140      -16.8881063069  MEMB      235             0.0000000000
     27613       235  POPC      HX             50.0303557523       -4.2151554408      -17.9333400733  MEMB      235             0.0000000000
     27614       235  POPC      HY             50.0185743869       -4.7745519886      -16.2268676437  MEMB      235             0.0000000000
     27615       235  POPC      O31            50.6132175017       -2.7444170998      -16.4991119667  MEMB      235             0.0000000000
     27616       235  POPC      C31            51.6651505426       -2.9694933715      -15.7172228773  MEMB      235             0.0000000000
     27617       235  POPC      O32            52.0447112409       -4.0878736853      -15.3131976683  MEMB      235             0.0000000000
     27618       235  POPC      C32            52.3448959573       -1.6476493950      -15.3197038069  MEMB      235             0.0000000000
     27619       235  POPC      H2X            52.8492668894       -1.2916888469      -16.2434044395  MEMB      235             0.0000000000
     27620       235  POPC      H2Y            53.2032304144       -1.7576300667      -14.6229349090  MEMB      235             0.0000000000
     27621       235  POPC      C23            47.1493019656       -4.8251055053      -12.8826947333  MEMB      235             0.0000000000
     27622       235  POPC      H3R            48.1364865660       -4.3575944030      -13.0857242532  MEMB      235             0.0000000000
     27623       235  POPC      H3S            47.0105566500       -5.8317242407      -13.3319041068  MEMB      235             0.0000000000
     27624       235  POPC      C24            46.7396096388       -4.8364155706      -11.3841061186  MEMB      235             0.0000000000
     27625       235  POPC      H4R            45.6907219340       -5.1958472384      -11.4545654073  MEMB      235             0.0000000000
     27626       235  POPC      H4S            46.6594477753       -3.8092598845      -10.9683584771  MEMB      235             0.0000000000
     27627       235  POPC      C25            47.4400412357       -5.8882249406      -10.5036098288  MEMB      235             0.0000000000
     27628       235  POPC      H5R            48.4916171562       -5.6450680880      -10.2402018769  MEMB      235             0.0000000000
     27629       235  POPC      H5S            47.5622319282       -6.8003711341      -11.1260082726  MEMB      235             0.0000000000
     27630       235  POPC      C26            46.6933886915       -6.3881706962       -9.2332388943  MEMB      235             0.0000000000
     27631       235  POPC      H6R            47.3656847419       -7.0848002259       -8.6882185140  MEMB      235             0.0000000000
     27632       235  POPC      H6S            45.7625065592       -6.8543869156       -9.6210815694  MEMB      235             0.0000000000
     27633       235  POPC      C27            46.2090070406       -5.3815870334       -8.2107329623  MEMB      235             0.0000000000
     27634       235  POPC      H7R            45.6486551675       -6.0697627105       -7.5423457300  MEMB      235             0.0000000000
     27635       235  POPC      H7S            45.5210781284       -4.6977645448       -8.7524541217  MEMB      235             0.0000000000
     27636       235  POPC      C28            47.2470372010       -4.6596581274       -7.4290473669  MEMB      235             0.0000000000
     27637       235  POPC      H8R            47.9896430809       -4.1731662807       -8.0970171005  MEMB      235             0.0000000000
     27638       235  POPC      H8S            47.7967133251       -5.4283179767       -6.8448061925  MEMB      235             0.0000000000
     27639       235  POPC      C29            46.8623317720       -3.4955768586       -6.5445747634  MEMB      235             0.0000000000
     27640       235  POPC      H91            46.9036248850       -2.5415759383       -7.0906308977  MEMB      235             0.0000000000
     27641       235  POPC      C210           46.4882835534       -3.5013148814       -5.2363052356  MEMB      235             0.0000000000
     27642       235  POPC      H101           46.2309787721       -2.5769527154       -4.6983936532  MEMB      235             0.0000000000
     27643       235  POPC      C211           46.4372475559       -4.7809866988       -4.3738137503  MEMB      235             0.0000000000
     27644       235  POPC      H11R           47.4703728886       -5.1830775421       -4.3010391046  MEMB      235             0.0000000000
     27645       235  POPC      H11S           45.9246699145       -5.5521806520       -4.9876906712  MEMB      235             0.0000000000
     27646       235  POPC      C212           45.8269950439       -4.7082747586       -2.8885886511  MEMB      235             0.0000000000
     27647       235  POPC      H12R           45.7856116631       -5.7644873330       -2.5465022192  MEMB      235             0.0000000000
     27648       235  POPC      H12S           44.8034955256       -4.2863909151       -2.9823086195  MEMB      235             0.0000000000
     27649       235  POPC      C213           46.6782213902       -3.9881924505       -1.8337622838  MEMB      235             0.0000000000
     27650       235  POPC      H13R           46.0248279240       -3.9538543072       -0.9358639974  MEMB      235             0.0000000000
     27651       235  POPC      H13S           46.9738424546       -2.9946496293       -2.2335119287  MEMB      235             0.0000000000
     27652       235  POPC      C214           47.9038519854       -4.7442105360       -1.3561928906  MEMB      235             0.0000000000
     27653       235  POPC      H14R           48.4741894136       -4.9071849019       -2.2955952765  MEMB      235             0.0000000000
     27654       235  POPC      H14S           47.5356814772       -5.7439257903       -1.0410100885  MEMB      235             0.0000000000
     27655       235  POPC      C215           48.6134350287       -4.0717735279       -0.1749759017  MEMB      235             0.0000000000
     27656       235  POPC      H15R           47.8970273839       -3.9471878786        0.6650001696  MEMB      235             0.0000000000
     27657       235  POPC      H15S           48.9634491670       -3.0708791707       -0.5066702654  MEMB      235             0.0000000000
     27658       235  POPC      C216           49.8258794154       -4.9648358774        0.1745564618  MEMB      235             0.0000000000
     27659       235  POPC      H16R           50.4968478755       -5.1101297892       -0.6989489082  MEMB      235             0.0000000000
     27660       235  POPC      H16S           49.3716398872       -5.9600085105        0.3685158076  MEMB      235             0.0000000000
     27661       235  POPC      C217           50.6888457769       -4.4307666550        1.2809245126  MEMB      235             0.0000000000
     27662       235  POPC      H17R           50.0841819909       -4.4636275847        2.2123863256  MEMB      235             0.0000000000
     27663       235  POPC      H17S           50.9986057072       -3.3667689328        1.2016825377  MEMB      235             0.0000000000
     27664       235  POPC      C218           51.9739623368       -5.2447167028        1.6257509136  MEMB      235             0.0000000000
     27665       235  POPC      H18R           52.8073176680       -5.1303008796        0.8999767166  MEMB      235             0.0000000000
     27666       235  POPC      H18S           51.6533359115       -6.2981881327        1.7731197696  MEMB      235             0.0000000000
     27667       235  POPC      H18T           52.4260005540       -4.9102439961        2.5839323098  MEMB      235             0.0000000000
     27668       235  POPC      C33            51.3989613355       -0.5744550391      -14.6899700608  MEMB      235             0.0000000000
     27669       235  POPC      H3X            50.4158143085       -0.4269018898      -15.1859248833  MEMB      235             0.0000000000
     27670       235  POPC      H3Y            51.8566211294        0.4378976183      -14.6867444352  MEMB      235             0.0000000000
     27671       235  POPC      C34            51.0335285019       -0.7454774140      -13.1363205012  MEMB      235             0.0000000000
     27672       235  POPC      H4X            50.6036315150        0.2029504986      -12.7490296911  MEMB      235             0.0000000000
     27673       235  POPC      H4Y            51.9497294062       -0.9498760567      -12.5420830648  MEMB      235             0.0000000000
     27674       235  POPC      C35            50.0101007656       -1.8912089998      -12.8956529435  MEMB      235             0.0000000000
     27675       235  POPC      H5X            50.4004945372       -2.8818969503      -13.2125932870  MEMB      235             0.0000000000
     27676       235  POPC      H5Y            49.1943894571       -1.7533435515      -13.6372249942  MEMB      235             0.0000000000
     27677       235  POPC      C36            49.5043256582       -2.0477027662      -11.4927598664  MEMB      235             0.0000000000
     27678       235  POPC      H6X            50.2215569002       -2.6289567234      -10.8746623138  MEMB      235             0.0000000000
     27679       235  POPC      H6Y            48.5989404807       -2.6867594001      -11.4139855373  MEMB      235             0.0000000000
     27680       235  POPC      C37            49.2242365294       -0.6960168131      -10.8051710085  MEMB      235             0.0000000000
     27681       235  POPC      H7X            48.6136684953       -0.1182075231      -11.5315757731  MEMB      235             0.0000000000
     27682       235  POPC      H7Y            50.2134006256       -0.1905240341      -10.7863959319  MEMB      235             0.0000000000
     27683       235  POPC      C38            48.8128891164       -0.7824731150       -9.3459141652  MEMB      235             0.0000000000
     27684       235  POPC      H8X            49.4192315758       -1.5587373212       -8.8320227940  MEMB      235             0.0000000000
     27685       235  POPC      H8Y            47.8058211492       -1.2466898146       -9.2778100578  MEMB      235             0.0000000000
     27686       235  POPC      C39            48.7586838412        0.5407279557       -8.6461456708  MEMB      235             0.0000000000
     27687       235  POPC      H9X            48.1210282274        1.2415975439       -9.2262299918  MEMB      235             0.0000000000
     27688       235  POPC      H9Y            49.7614561494        1.0083357151       -8.5455895568  MEMB      235             0.0000000000
     27689       235  POPC      C310           48.1173066731        0.6434529035       -7.2478312790  MEMB      235             0.0000000000
     27690       235  POPC      H10X           47.0927090911        0.2197873813       -7.1769197872  MEMB      235             0.0000000000
     27691       235  POPC      H10Y           48.0995640788        1.7300422253       -7.0168983906  MEMB      235             0.0000000000
     27692       235  POPC      C311           48.8289080190       -0.2382560112       -6.1179521249  MEMB      235             0.0000000000
     27693       235  POPC      H11X           49.9254559574       -0.1669184444       -6.2817032103  MEMB      235             0.0000000000
     27694       235  POPC      H11Y           48.4554315929       -1.2844519995       -6.1355617705  MEMB      235             0.0000000000
     27695       235  POPC      C312           48.6365044636        0.4468363343       -4.7762753532  MEMB      235             0.0000000000
     27696       235  POPC      H12X           47.6102397630        0.3002739353       -4.3767484068  MEMB      235             0.0000000000
     27697       235  POPC      H12Y           48.9111887083        1.4914610520       -5.0363310386  MEMB      235             0.0000000000
     27698       235  POPC      C313           49.6623157547        0.1317752831       -3.5859832496  MEMB      235             0.0000000000
     27699       235  POPC      H13X           49.5994160834        0.8612771571       -2.7504045093  MEMB      235             0.0000000000
     27700       235  POPC      H13Y           50.7020308449        0.1551547704       -3.9768371034  MEMB      235             0.0000000000
     27701       235  POPC      C314           49.3806327130       -1.3128125525       -3.0782223137  MEMB      235             0.0000000000
     27702       235  POPC      H14X           49.0645758517       -2.0616601041       -3.8356234566  MEMB      235             0.0000000000
     27703       235  POPC      H14Y           48.5242444373       -1.1539869031       -2.3885162811  MEMB      235             0.0000000000
     27704       235  POPC      C315           50.5237351489       -1.9928675667       -2.3407055443  MEMB      235             0.0000000000
     27705       235  POPC      H15X           51.2701682544       -2.2638207873       -3.1177135848  MEMB      235             0.0000000000
     27706       235  POPC      H15Y           50.2255239198       -2.9865222476       -1.9431586872  MEMB      235             0.0000000000
     27707       235  POPC      C316           51.1173617398       -1.2360734942       -1.1794869336  MEMB      235             0.0000000000
     27708       235  POPC      H16X           50.2462737910       -1.0140744342       -0.5266145088  MEMB      235             0.0000000000
     27709       235  POPC      H16Y           51.6101168277       -0.3063096312       -1.5359311013  MEMB      235             0.0000000000
     27710       235  POPC      H16Z           51.9530206894       -1.8324950839       -0.7548969744  MEMB      235             0.0000000000
     27711       236  POPC      N             -25.8176699787      -42.4510500648      -18.8231460820  MEMB      236             0.0000000000
     27712       236  POPC      C12           -25.3440118950      -41.2722155813      -18.0178563919  MEMB      236             0.0000000000
     27713       236  POPC      H12A          -24.8230745095      -41.7765587762      -17.2174426927  MEMB      236             0.0000000000
     27714       236  POPC      H12B          -26.1291300493      -40.8916860767      -17.3813134869  MEMB      236             0.0000000000
     27715       236  POPC      C13           -26.8194726118      -42.0740458127      -19.8296790227  MEMB      236             0.0000000000
     27716       236  POPC      H13A          -27.2631737423      -42.9735181490      -20.2302775113  MEMB      236             0.0000000000
     27717       236  POPC      H13B          -27.5088608252      -41.4226880812      -19.3130776637  MEMB      236             0.0000000000
     27718       236  POPC      H13C          -26.2698750317      -41.5518889396      -20.5988958863  MEMB      236             0.0000000000
     27719       236  POPC      C14           -24.6893203096      -43.2446053205      -19.4665996774  MEMB      236             0.0000000000
     27720       236  POPC      H14A          -23.9629457266      -43.5260712850      -18.7185644402  MEMB      236             0.0000000000
     27721       236  POPC      H14B          -25.0786437491      -44.0562567937      -20.0632982737  MEMB      236             0.0000000000
     27722       236  POPC      H14C          -24.1356077480      -42.6692924348      -20.1937981106  MEMB      236             0.0000000000
     27723       236  POPC      C15           -26.4928720339      -43.3976571131      -17.7106765745  MEMB      236             0.0000000000
     27724       236  POPC      H15A          -26.4079092162      -44.4131669672      -18.0683376410  MEMB      236             0.0000000000
     27725       236  POPC      H15B          -27.4371649201      -42.9762559866      -17.3990164313  MEMB      236             0.0000000000
     27726       236  POPC      H15C          -25.9482177850      -43.3703815012      -16.7784706880  MEMB      236             0.0000000000
     27727       236  POPC      C11           -24.5019983767      -40.0305254710      -18.7040339312  MEMB      236             0.0000000000
     27728       236  POPC      H11A          -23.7240981428      -40.5372788421      -19.3142742980  MEMB      236             0.0000000000
     27729       236  POPC      H11B          -24.0507894683      -39.5414737752      -17.8143374412  MEMB      236             0.0000000000
     27730       236  POPC      P             -25.3719719619      -37.6576912241      -19.3731446819  MEMB      236             0.0000000000
     27731       236  POPC      O13           -26.7122392960      -37.2460878023      -19.8726716233  MEMB      236             0.0000000000
     27732       236  POPC      O14           -24.1116886149      -37.0608604013      -19.8993621330  MEMB      236             0.0000000000
     27733       236  POPC      O12           -25.3109465911      -39.2629586046      -19.5240843821  MEMB      236             0.0000000000
     27734       236  POPC      O11           -25.4218847708      -37.4725881789      -17.7787455024  MEMB      236             0.0000000000
     27735       236  POPC      C1            -26.6901213926      -37.8146335225      -17.1063315213  MEMB      236             0.0000000000
     27736       236  POPC      HA            -26.5340824018      -38.8453528564      -16.7221565215  MEMB      236             0.0000000000
     27737       236  POPC      HB            -27.4774035191      -38.0267406306      -17.8609959137  MEMB      236             0.0000000000
     27738       236  POPC      C2            -27.1493774304      -36.9049319214      -15.9825155346  MEMB      236             0.0000000000
     27739       236  POPC      HS            -27.5134555813      -35.9435435678      -16.4038233444  MEMB      236             0.0000000000
     27740       236  POPC      O21           -26.0457089784      -36.6243460765      -15.1052139396  MEMB      236             0.0000000000
     27741       236  POPC      C21           -25.9956929423      -35.4570256405      -14.5861025247  MEMB      236             0.0000000000
     27742       236  POPC      O22           -26.8053470648      -34.5443294469      -14.7390119808  MEMB      236             0.0000000000
     27743       236  POPC      C22           -24.7127422559      -35.4552375460      -13.7402193751  MEMB      236             0.0000000000
     27744       236  POPC      H2R           -24.3777806860      -34.3966383492      -13.7016190366  MEMB      236             0.0000000000
     27745       236  POPC      H2S           -23.9091503621      -36.0070974597      -14.2731470657  MEMB      236             0.0000000000
     27746       236  POPC      C3            -28.2530650591      -37.5931961440      -15.1905200924  MEMB      236             0.0000000000
     27747       236  POPC      HX            -29.0316802347      -37.9636402398      -15.8911272562  MEMB      236             0.0000000000
     27748       236  POPC      HY            -28.6638136219      -36.8919927490      -14.4329445342  MEMB      236             0.0000000000
     27749       236  POPC      O31           -27.7150237165      -38.6888266509      -14.4318976754  MEMB      236             0.0000000000
     27750       236  POPC      C31           -27.9166008997      -39.9955987294      -14.7964068291  MEMB      236             0.0000000000
     27751       236  POPC      O32           -28.7833127963      -40.3524004232      -15.6269689214  MEMB      236             0.0000000000
     27752       236  POPC      C32           -26.9403637207      -40.9558693608      -14.0699001345  MEMB      236             0.0000000000
     27753       236  POPC      H2X           -26.0141313451      -40.7828686503      -14.6585299401  MEMB      236             0.0000000000
     27754       236  POPC      H2Y           -27.2897466132      -42.0038689096      -14.1880072831  MEMB      236             0.0000000000
     27755       236  POPC      C23           -25.0332139840      -35.7062157597      -12.2606112531  MEMB      236             0.0000000000
     27756       236  POPC      H3R           -25.8773312351      -35.0595328221      -11.9387595079  MEMB      236             0.0000000000
     27757       236  POPC      H3S           -24.0877197014      -35.3837506168      -11.7744240645  MEMB      236             0.0000000000
     27758       236  POPC      C24           -25.3984468199      -37.1462112230      -11.9090017334  MEMB      236             0.0000000000
     27759       236  POPC      H4R           -24.4639773537      -37.6522509695      -11.5849464221  MEMB      236             0.0000000000
     27760       236  POPC      H4S           -25.7145958695      -37.6444674407      -12.8503365816  MEMB      236             0.0000000000
     27761       236  POPC      C25           -26.3578137482      -37.3051677315      -10.7993883691  MEMB      236             0.0000000000
     27762       236  POPC      H5R           -25.8672885984      -36.6754516572      -10.0266245289  MEMB      236             0.0000000000
     27763       236  POPC      H5S           -26.2750135066      -38.3537249793      -10.4416277455  MEMB      236             0.0000000000
     27764       236  POPC      C26           -27.7905234522      -36.9551922502      -11.1513319865  MEMB      236             0.0000000000
     27765       236  POPC      H6R           -28.1065452802      -37.2975128949      -12.1599287317  MEMB      236             0.0000000000
     27766       236  POPC      H6S           -27.8796140208      -35.8534722593      -11.2635679323  MEMB      236             0.0000000000
     27767       236  POPC      C27           -28.7437933358      -37.5162363700      -10.0656503032  MEMB      236             0.0000000000
     27768       236  POPC      H7R           -28.9072873055      -38.5461433368      -10.4489031196  MEMB      236             0.0000000000
     27769       236  POPC      H7S           -29.6790688351      -36.9318609782      -10.2001358295  MEMB      236             0.0000000000
     27770       236  POPC      C28           -28.2822541382      -37.2997111226       -8.5652897149  MEMB      236             0.0000000000
     27771       236  POPC      H8R           -27.3033791021      -37.8069186024       -8.4279384140  MEMB      236             0.0000000000
     27772       236  POPC      H8S           -28.9470883572      -37.9595603829       -7.9678659573  MEMB      236             0.0000000000
     27773       236  POPC      C29           -28.0721609743      -35.8082685620       -8.0862402638  MEMB      236             0.0000000000
     27774       236  POPC      H91           -28.0623432873      -35.0466245321       -8.8798401897  MEMB      236             0.0000000000
     27775       236  POPC      C210          -28.2011557112      -35.3940643587       -6.8288513098  MEMB      236             0.0000000000
     27776       236  POPC      H101          -27.8461487954      -34.3570703102       -6.7360434337  MEMB      236             0.0000000000
     27777       236  POPC      C211          -28.5817356170      -36.2418283371       -5.6581779701  MEMB      236             0.0000000000
     27778       236  POPC      H11R          -29.1109812505      -37.1616740244       -5.9869695677  MEMB      236             0.0000000000
     27779       236  POPC      H11S          -29.3730099890      -35.7182965496       -5.0801474443  MEMB      236             0.0000000000
     27780       236  POPC      C212          -27.3922236095      -36.4455933871       -4.6692576845  MEMB      236             0.0000000000
     27781       236  POPC      H12R          -26.9363767120      -35.4723121064       -4.3877471743  MEMB      236             0.0000000000
     27782       236  POPC      H12S          -26.5474872330      -36.9951356021       -5.1369595777  MEMB      236             0.0000000000
     27783       236  POPC      C213          -27.6167198241      -37.2171886168       -3.3226282147  MEMB      236             0.0000000000
     27784       236  POPC      H13R          -26.7087338984      -37.0524684745       -2.7039602018  MEMB      236             0.0000000000
     27785       236  POPC      H13S          -27.6655175558      -38.2514216452       -3.7254949200  MEMB      236             0.0000000000
     27786       236  POPC      C214          -28.9240423889      -36.9370150483       -2.5774150520  MEMB      236             0.0000000000
     27787       236  POPC      H14R          -29.1932243873      -37.9019201854       -2.0969766226  MEMB      236             0.0000000000
     27788       236  POPC      H14S          -29.7486888984      -36.8032665421       -3.3098023142  MEMB      236             0.0000000000
     27789       236  POPC      C215          -28.8479116563      -35.8768633625       -1.4123124412  MEMB      236             0.0000000000
     27790       236  POPC      H15R          -29.8210913675      -35.4732638459       -1.0596805250  MEMB      236             0.0000000000
     27791       236  POPC      H15S          -28.2786701924      -35.0421307591       -1.8743810166  MEMB      236             0.0000000000
     27792       236  POPC      C216          -27.9328831999      -36.2683574079       -0.2449996945  MEMB      236             0.0000000000
     27793       236  POPC      H16R          -27.5702213072      -35.3650071839        0.2904956849  MEMB      236             0.0000000000
     27794       236  POPC      H16S          -26.9272932282      -36.5945462966       -0.5866275471  MEMB      236             0.0000000000
     27795       236  POPC      C217          -28.5686312180      -37.3578143088        0.7263669227  MEMB      236             0.0000000000
     27796       236  POPC      H17R          -28.6341182717      -38.3146766985        0.1656103172  MEMB      236             0.0000000000
     27797       236  POPC      H17S          -29.5997973491      -37.0862140877        1.0382176069  MEMB      236             0.0000000000
     27798       236  POPC      C218          -27.6209283073      -37.6427459669        1.9286914642  MEMB      236             0.0000000000
     27799       236  POPC      H18R          -26.7498230213      -38.1812012632        1.4979215676  MEMB      236             0.0000000000
     27800       236  POPC      H18S          -28.1302809615      -38.2705028170        2.6907940026  MEMB      236             0.0000000000
     27801       236  POPC      H18T          -27.0946340209      -36.7802080092        2.3906031814  MEMB      236             0.0000000000
     27802       236  POPC      C33           -26.7620836650      -40.7433041884      -12.5670940551  MEMB      236             0.0000000000
     27803       236  POPC      H3X           -27.7510657649      -40.6693576650      -12.0663269734  MEMB      236             0.0000000000
     27804       236  POPC      H3Y           -26.1930799177      -39.7893076741      -12.5459684472  MEMB      236             0.0000000000
     27805       236  POPC      C34           -25.8389809209      -41.7198291963      -11.8564247368  MEMB      236             0.0000000000
     27806       236  POPC      H4X           -24.7828242164      -41.6467266618      -12.1933372102  MEMB      236             0.0000000000
     27807       236  POPC      H4Y           -26.2758767800      -42.7294676232      -12.0115798439  MEMB      236             0.0000000000
     27808       236  POPC      C35           -25.6884969271      -41.4759763721      -10.3241443515  MEMB      236             0.0000000000
     27809       236  POPC      H5X           -25.4441322557      -40.3992146305      -10.2008925853  MEMB      236             0.0000000000
     27810       236  POPC      H5Y           -24.8674834533      -42.0897218000       -9.8956884255  MEMB      236             0.0000000000
     27811       236  POPC      C36           -26.9337359409      -41.6379558683       -9.4754746789  MEMB      236             0.0000000000
     27812       236  POPC      H6X           -27.3736233611      -42.6354319598       -9.6896276837  MEMB      236             0.0000000000
     27813       236  POPC      H6Y           -27.6990712783      -40.9090332323       -9.8178994822  MEMB      236             0.0000000000
     27814       236  POPC      C37           -26.7776461144      -41.5551895406       -7.9613136563  MEMB      236             0.0000000000
     27815       236  POPC      H7X           -25.9477338219      -42.2837070677       -7.8395395299  MEMB      236             0.0000000000
     27816       236  POPC      H7Y           -27.6696582648      -41.9455310183       -7.4262733843  MEMB      236             0.0000000000
     27817       236  POPC      C38           -26.3728918802      -40.1606430489       -7.3827625838  MEMB      236             0.0000000000
     27818       236  POPC      H8X           -27.1189483703      -39.8443104315       -6.6227267872  MEMB      236             0.0000000000
     27819       236  POPC      H8Y           -26.2861632632      -39.4628448030       -8.2429232951  MEMB      236             0.0000000000
     27820       236  POPC      C39           -25.0755340188      -40.2586855430       -6.7156934485  MEMB      236             0.0000000000
     27821       236  POPC      H9X           -24.5930534608      -39.2700824218       -6.5601382033  MEMB      236             0.0000000000
     27822       236  POPC      H9Y           -24.2878539272      -40.7069080295       -7.3583263981  MEMB      236             0.0000000000
     27823       236  POPC      C310          -25.1509435473      -40.9483505122       -5.3317193545  MEMB      236             0.0000000000
     27824       236  POPC      H10X          -24.2105275670      -41.5266770592       -5.2073125619  MEMB      236             0.0000000000
     27825       236  POPC      H10Y          -26.0901523238      -41.5378081909       -5.2628167532  MEMB      236             0.0000000000
     27826       236  POPC      C311          -25.1779706443      -39.9853525942       -4.1587070393  MEMB      236             0.0000000000
     27827       236  POPC      H11X          -25.9105518262      -39.1792332559       -4.3773787410  MEMB      236             0.0000000000
     27828       236  POPC      H11Y          -24.1931955508      -39.5033023360       -3.9793567382  MEMB      236             0.0000000000
     27829       236  POPC      C312          -25.5112552301      -40.7595906943       -2.8132825288  MEMB      236             0.0000000000
     27830       236  POPC      H12X          -24.7574571696      -41.5694609542       -2.9143766772  MEMB      236             0.0000000000
     27831       236  POPC      H12Y          -26.5423793283      -41.1700573782       -2.8644817799  MEMB      236             0.0000000000
     27832       236  POPC      C313          -25.2941897996      -39.8704097606       -1.6090569012  MEMB      236             0.0000000000
     27833       236  POPC      H13X          -25.8034726080      -38.8830140653       -1.6103984886  MEMB      236             0.0000000000
     27834       236  POPC      H13Y          -24.1948635613      -39.8086721775       -1.4607618282  MEMB      236             0.0000000000
     27835       236  POPC      C314          -25.7649990903      -40.6222849806       -0.3243024653  MEMB      236             0.0000000000
     27836       236  POPC      H14X          -26.8602439248      -40.6570116320       -0.5074800270  MEMB      236             0.0000000000
     27837       236  POPC      H14Y          -25.5820143285      -39.9514289699        0.5421780664  MEMB      236             0.0000000000
     27838       236  POPC      C315          -25.1600585372      -41.9558477195        0.0424445475  MEMB      236             0.0000000000
     27839       236  POPC      H15X          -24.1250273170      -41.7660631357        0.3988330855  MEMB      236             0.0000000000
     27840       236  POPC      H15Y          -25.1699741973      -42.6208508683       -0.8474960057  MEMB      236             0.0000000000
     27841       236  POPC      C316          -25.9755051717      -42.5940864225        1.1274401138  MEMB      236             0.0000000000
     27842       236  POPC      H16X          -25.6359247319      -43.6093472067        1.4245125668  MEMB      236             0.0000000000
     27843       236  POPC      H16Y          -27.0489577836      -42.6841270347        0.8555708280  MEMB      236             0.0000000000
     27844       236  POPC      H16Z          -25.9375163340      -41.8572789446        1.9580983893  MEMB      236             0.0000000000
     27845       237  POPC      N              -2.0120993021      -48.7331412081      -18.2279055884  MEMB      237             0.0000000000
     27846       237  POPC      C12            -3.0473714597      -49.7936532178      -17.8134576239  MEMB      237             0.0000000000
     27847       237  POPC      H12A           -3.9415315563      -49.3883812006      -18.2636049706  MEMB      237             0.0000000000
     27848       237  POPC      H12B           -3.2399139226      -49.7018019205      -16.7547364468  MEMB      237             0.0000000000
     27849       237  POPC      C13            -2.0108097886      -48.4277117627      -19.7305520879  MEMB      237             0.0000000000
     27850       237  POPC      H13A           -1.4305649535      -47.5331066462      -19.9020098050  MEMB      237             0.0000000000
     27851       237  POPC      H13B           -1.6113916447      -49.3091180140      -20.2101230033  MEMB      237             0.0000000000
     27852       237  POPC      H13C           -2.9660770983      -48.2535476341      -20.2033430315  MEMB      237             0.0000000000
     27853       237  POPC      C14            -2.2344484860      -47.4857592927      -17.5677519989  MEMB      237             0.0000000000
     27854       237  POPC      H14A           -1.4282852371      -46.7703791690      -17.6365418665  MEMB      237             0.0000000000
     27855       237  POPC      H14B           -3.1224772031      -47.0288987151      -17.9789493933  MEMB      237             0.0000000000
     27856       237  POPC      H14C           -2.4058531909      -47.5683601923      -16.5046443684  MEMB      237             0.0000000000
     27857       237  POPC      C15            -0.6319033499      -49.1573241649      -17.7996744318  MEMB      237             0.0000000000
     27858       237  POPC      H15A           -0.6651892156      -49.4372855838      -16.7571227626  MEMB      237             0.0000000000
     27859       237  POPC      H15B            0.0126322529      -48.3369816194      -18.0789806770  MEMB      237             0.0000000000
     27860       237  POPC      H15C           -0.3943872444      -50.1278134147      -18.2097190460  MEMB      237             0.0000000000
     27861       237  POPC      C11            -2.7926684415      -51.2768534425      -18.1627816165  MEMB      237             0.0000000000
     27862       237  POPC      H11A           -3.7725715980      -51.7776851285      -18.0102089559  MEMB      237             0.0000000000
     27863       237  POPC      H11B           -2.1025367211      -51.6840100277      -17.3931956132  MEMB      237             0.0000000000
     27864       237  POPC      P              -2.2285589155      -53.0534180959      -20.0093662408  MEMB      237             0.0000000000
     27865       237  POPC      O13            -0.8081660947      -53.2978842116      -20.4872504560  MEMB      237             0.0000000000
     27866       237  POPC      O14            -3.2802367305      -53.2671173864      -20.9768585171  MEMB      237             0.0000000000
     27867       237  POPC      O12            -2.2973906968      -51.5257025840      -19.5312797252  MEMB      237             0.0000000000
     27868       237  POPC      O11            -2.6122975927      -53.8950339558      -18.6931217208  MEMB      237             0.0000000000
     27869       237  POPC      C1             -2.4155620217      -55.2774436888      -18.8146994704  MEMB      237             0.0000000000
     27870       237  POPC      HA             -1.4095392808      -55.6275946268      -19.1303474039  MEMB      237             0.0000000000
     27871       237  POPC      HB             -3.1219082561      -55.6499636385      -19.5871145093  MEMB      237             0.0000000000
     27872       237  POPC      C2             -2.8684087388      -56.0480021993      -17.5662547719  MEMB      237             0.0000000000
     27873       237  POPC      HS             -3.2320683326      -57.0329037879      -17.9296298481  MEMB      237             0.0000000000
     27874       237  POPC      O21            -3.8493542707      -55.5068487832      -16.6878441326  MEMB      237             0.0000000000
     27875       237  POPC      C21            -5.0455201526      -55.1949689992      -17.1540368726  MEMB      237             0.0000000000
     27876       237  POPC      O22            -5.4118436312      -55.2250086341      -18.3066672432  MEMB      237             0.0000000000
     27877       237  POPC      C22            -5.7911017239      -54.4884263991      -15.9964548684  MEMB      237             0.0000000000
     27878       237  POPC      H2R            -5.5457542588      -55.0308392260      -15.0584174089  MEMB      237             0.0000000000
     27879       237  POPC      H2S            -6.8613467037      -54.5918647678      -16.2760933127  MEMB      237             0.0000000000
     27880       237  POPC      C3             -1.6044220724      -56.3489718215      -16.6503875317  MEMB      237             0.0000000000
     27881       237  POPC      HX             -0.9440768250      -57.0323059708      -17.2259914193  MEMB      237             0.0000000000
     27882       237  POPC      HY             -1.8653041173      -56.8561300053      -15.6969456597  MEMB      237             0.0000000000
     27883       237  POPC      O31            -0.8089954124      -55.2136430937      -16.4111137766  MEMB      237             0.0000000000
     27884       237  POPC      C31            -1.1084587667      -54.3550288542      -15.4706734171  MEMB      237             0.0000000000
     27885       237  POPC      O32            -1.9931950401      -54.4475470152      -14.6227814419  MEMB      237             0.0000000000
     27886       237  POPC      C32             0.0810659755      -53.2834775526      -15.4175344011  MEMB      237             0.0000000000
     27887       237  POPC      H2X             0.3928766705      -53.0482081139      -16.4576032620  MEMB      237             0.0000000000
     27888       237  POPC      H2Y             0.9942469184      -53.6230138046      -14.8835527986  MEMB      237             0.0000000000
     27889       237  POPC      C23            -5.1888415082      -53.0895704106      -15.8671762428  MEMB      237             0.0000000000
     27890       237  POPC      H3R            -5.6361530645      -52.4399261533      -16.6496055207  MEMB      237             0.0000000000
     27891       237  POPC      H3S            -4.0900859070      -53.0949982910      -16.0315774484  MEMB      237             0.0000000000
     27892       237  POPC      C24            -5.3775067894      -52.2997679859      -14.5383153885  MEMB      237             0.0000000000
     27893       237  POPC      H4R            -4.9351111879      -52.9592655329      -13.7613531695  MEMB      237             0.0000000000
     27894       237  POPC      H4S            -6.4613721717      -52.0789438921      -14.4344240293  MEMB      237             0.0000000000
     27895       237  POPC      C25            -4.5208148816      -51.0493647852      -14.6199223996  MEMB      237             0.0000000000
     27896       237  POPC      H5R            -4.8008520797      -50.3289812753      -15.4180127266  MEMB      237             0.0000000000
     27897       237  POPC      H5S            -3.4256639082      -51.2295197793      -14.6700164518  MEMB      237             0.0000000000
     27898       237  POPC      C26            -4.7116823623      -50.1935248542      -13.3607273447  MEMB      237             0.0000000000
     27899       237  POPC      H6R            -4.1223064374      -50.7862887882      -12.6288889696  MEMB      237             0.0000000000
     27900       237  POPC      H6S            -5.7449634073      -50.1157392657      -12.9599773254  MEMB      237             0.0000000000
     27901       237  POPC      C27            -3.8874749413      -48.9096576116      -13.4111729796  MEMB      237             0.0000000000
     27902       237  POPC      H7R            -4.3396282475      -48.1705596071      -14.1065961153  MEMB      237             0.0000000000
     27903       237  POPC      H7S            -2.9693716037      -49.1605540207      -13.9842861420  MEMB      237             0.0000000000
     27904       237  POPC      C28            -3.4746318672      -48.3725557793      -12.0063374294  MEMB      237             0.0000000000
     27905       237  POPC      H8R            -2.6997262799      -47.5856208641      -12.1270658559  MEMB      237             0.0000000000
     27906       237  POPC      H8S            -2.9057450128      -49.1507678481      -11.4540013996  MEMB      237             0.0000000000
     27907       237  POPC      C29            -4.5976871862      -47.6534423559      -11.2940578401  MEMB      237             0.0000000000
     27908       237  POPC      H91            -5.0529999302      -46.8970028214      -11.9501743632  MEMB      237             0.0000000000
     27909       237  POPC      C210           -5.1152912711      -48.0479810319      -10.0377189240  MEMB      237             0.0000000000
     27910       237  POPC      H101           -6.0257593585      -47.5775096034       -9.6380877479  MEMB      237             0.0000000000
     27911       237  POPC      C211           -4.6418715752      -49.2449305768       -9.2241034194  MEMB      237             0.0000000000
     27912       237  POPC      H11R           -4.0561521608      -48.7680111757       -8.4093631004  MEMB      237             0.0000000000
     27913       237  POPC      H11S           -4.1664784286      -50.0366885143       -9.8417134251  MEMB      237             0.0000000000
     27914       237  POPC      C212           -5.9584410075      -49.8933923780       -8.5767873655  MEMB      237             0.0000000000
     27915       237  POPC      H12R           -6.4307098423      -50.2753961803       -9.5070325923  MEMB      237             0.0000000000
     27916       237  POPC      H12S           -6.6818769524      -49.1341270699       -8.2100760644  MEMB      237             0.0000000000
     27917       237  POPC      C213           -5.7157594798      -51.0414961564       -7.5711826377  MEMB      237             0.0000000000
     27918       237  POPC      H13R           -4.8183098690      -51.6574878479       -7.7935781174  MEMB      237             0.0000000000
     27919       237  POPC      H13S           -6.5852453117      -51.7261832137       -7.6687479765  MEMB      237             0.0000000000
     27920       237  POPC      C214           -5.5869786967      -50.5846487407       -6.1288144068  MEMB      237             0.0000000000
     27921       237  POPC      H14R           -6.4233780467      -49.9254891617       -5.8121668473  MEMB      237             0.0000000000
     27922       237  POPC      H14S           -4.7073136461      -49.9157449258       -6.2431730164  MEMB      237             0.0000000000
     27923       237  POPC      C215           -5.4170302882      -51.7099969689       -5.0682790090  MEMB      237             0.0000000000
     27924       237  POPC      H15R           -4.6629390012      -52.3500673855       -5.5742211667  MEMB      237             0.0000000000
     27925       237  POPC      H15S           -6.3616813017      -52.2936009111       -5.0313748404  MEMB      237             0.0000000000
     27926       237  POPC      C216           -5.1901335901      -51.2251247617       -3.5734155242  MEMB      237             0.0000000000
     27927       237  POPC      H16R           -5.9250979074      -50.4687857006       -3.2239870539  MEMB      237             0.0000000000
     27928       237  POPC      H16S           -4.2183487358      -50.7103019794       -3.7312510333  MEMB      237             0.0000000000
     27929       237  POPC      C217           -4.9404828015      -52.2521240782       -2.4597087832  MEMB      237             0.0000000000
     27930       237  POPC      H17R           -4.5648300833      -51.8004809205       -1.5167217765  MEMB      237             0.0000000000
     27931       237  POPC      H17S           -4.1040472517      -52.9119939610       -2.7747775134  MEMB      237             0.0000000000
     27932       237  POPC      C218           -6.0345406200      -53.2394903175       -2.0831444376  MEMB      237             0.0000000000
     27933       237  POPC      H18R           -6.9235871415      -52.6458864781       -1.7805687932  MEMB      237             0.0000000000
     27934       237  POPC      H18S           -5.7146880781      -53.8789705870       -1.2328032293  MEMB      237             0.0000000000
     27935       237  POPC      H18T           -6.1688056228      -53.9552130606       -2.9222127138  MEMB      237             0.0000000000
     27936       237  POPC      C33            -0.3588936441      -51.8789992129      -14.7846798720  MEMB      237             0.0000000000
     27937       237  POPC      H3X            -1.4098299879      -51.6187596374      -15.0339369437  MEMB      237             0.0000000000
     27938       237  POPC      H3Y             0.2953669668      -51.1456785586      -15.3028545200  MEMB      237             0.0000000000
     27939       237  POPC      C34            -0.0951069658      -51.7870959417      -13.2262121794  MEMB      237             0.0000000000
     27940       237  POPC      H4X             0.9700514019      -52.0969433260      -13.1649478407  MEMB      237             0.0000000000
     27941       237  POPC      H4Y            -0.7315464792      -52.4989072732      -12.6582421364  MEMB      237             0.0000000000
     27942       237  POPC      C35            -0.3082972724      -50.3681442742      -12.6492247278  MEMB      237             0.0000000000
     27943       237  POPC      H5X            -1.3886156560      -50.1716402666      -12.8183967546  MEMB      237             0.0000000000
     27944       237  POPC      H5Y             0.1650542658      -49.5410204052      -13.2202986046  MEMB      237             0.0000000000
     27945       237  POPC      C36            -0.2361536431      -50.2124184107      -11.0765776516  MEMB      237             0.0000000000
     27946       237  POPC      H6X            -0.5267378718      -49.2024438835      -10.7162537178  MEMB      237             0.0000000000
     27947       237  POPC      H6Y             0.8534681504      -50.3082137830      -10.8819794850  MEMB      237             0.0000000000
     27948       237  POPC      C37            -1.1048345369      -51.2293886921      -10.2497935999  MEMB      237             0.0000000000
     27949       237  POPC      H7X            -0.6758558506      -52.2470616032      -10.3707893822  MEMB      237             0.0000000000
     27950       237  POPC      H7Y            -2.0730154938      -51.4296904085      -10.7565734811  MEMB      237             0.0000000000
     27951       237  POPC      C38            -1.3416991844      -50.9125330190       -8.7710131117  MEMB      237             0.0000000000
     27952       237  POPC      H8X            -2.1017813480      -50.1280666761       -8.5680143130  MEMB      237             0.0000000000
     27953       237  POPC      H8Y            -0.3379167531      -50.5720495144       -8.4381281797  MEMB      237             0.0000000000
     27954       237  POPC      C39            -1.6467083298      -52.1490623407       -7.8470076973  MEMB      237             0.0000000000
     27955       237  POPC      H9X            -0.7814490612      -52.8270486338       -8.0081980609  MEMB      237             0.0000000000
     27956       237  POPC      H9Y            -2.5345646373      -52.6082087156       -8.3319990993  MEMB      237             0.0000000000
     27957       237  POPC      C310           -1.8903273257      -51.6859374315       -6.3618422137  MEMB      237             0.0000000000
     27958       237  POPC      H10X           -2.8097680279      -51.0663807126       -6.2904323074  MEMB      237             0.0000000000
     27959       237  POPC      H10Y           -1.0613312683      -50.9664290711       -6.1903955472  MEMB      237             0.0000000000
     27960       237  POPC      C311           -1.9737589368      -52.9023306833       -5.3885225287  MEMB      237             0.0000000000
     27961       237  POPC      H11X           -2.8191705723      -53.5649161690       -5.6723896308  MEMB      237             0.0000000000
     27962       237  POPC      H11Y           -2.2164242363      -52.3452142967       -4.4584383631  MEMB      237             0.0000000000
     27963       237  POPC      C312           -0.8131335169      -53.9002319355       -5.2582325971  MEMB      237             0.0000000000
     27964       237  POPC      H12X            0.0321369022      -53.3905094292       -4.7483091520  MEMB      237             0.0000000000
     27965       237  POPC      H12Y           -0.5551499664      -54.3723659805       -6.2302688918  MEMB      237             0.0000000000
     27966       237  POPC      C313           -1.1565765497      -55.0509044219       -4.3116354155  MEMB      237             0.0000000000
     27967       237  POPC      H13X           -1.9632081204      -55.6188013968       -4.8226729289  MEMB      237             0.0000000000
     27968       237  POPC      H13Y           -1.6954994347      -54.6695408874       -3.4180782406  MEMB      237             0.0000000000
     27969       237  POPC      C314            0.0744886341      -55.9626493210       -3.8438306429  MEMB      237             0.0000000000
     27970       237  POPC      H14X            0.7268226843      -56.1681005671       -4.7193713344  MEMB      237             0.0000000000
     27971       237  POPC      H14Y           -0.3242024122      -56.9297465996       -3.4695449776  MEMB      237             0.0000000000
     27972       237  POPC      C315            0.9684221895      -55.4265399547       -2.7133812443  MEMB      237             0.0000000000
     27973       237  POPC      H15X            1.5102157051      -54.6231443823       -3.2568306822  MEMB      237             0.0000000000
     27974       237  POPC      H15Y            1.6793568978      -56.2288958720       -2.4216305765  MEMB      237             0.0000000000
     27975       237  POPC      C316            0.2563573669      -55.0488950313       -1.4462295974  MEMB      237             0.0000000000
     27976       237  POPC      H16X           -0.3955822716      -54.1515160534       -1.5095285119  MEMB      237             0.0000000000
     27977       237  POPC      H16Y            0.9594144582      -54.9911941130       -0.5879156082  MEMB      237             0.0000000000
     27978       237  POPC      H16Z           -0.3391037184      -55.8869133796       -1.0249520991  MEMB      237             0.0000000000
     27979       238  POPC      N              48.3142164996      -17.4504946538      -19.3618189154  MEMB      238             0.0000000000
     27980       238  POPC      C12            47.4354015744      -16.2290864684      -19.8487053620  MEMB      238             0.0000000000
     27981       238  POPC      H12A           46.8198431022      -16.4278339353      -20.7135679078  MEMB      238             0.0000000000
     27982       238  POPC      H12B           48.2338975806      -15.5370948880      -20.0722042937  MEMB      238             0.0000000000
     27983       238  POPC      C13            47.2596206450      -18.5239240424      -18.9559005074  MEMB      238             0.0000000000
     27984       238  POPC      H13A           47.8057355054      -19.3210906257      -18.4735275205  MEMB      238             0.0000000000
     27985       238  POPC      H13B           46.6744340293      -18.1243335472      -18.1408642987  MEMB      238             0.0000000000
     27986       238  POPC      H13C           46.6516719664      -18.8856488806      -19.7719602080  MEMB      238             0.0000000000
     27987       238  POPC      C14            48.9694283147      -17.9781320549      -20.5363494145  MEMB      238             0.0000000000
     27988       238  POPC      H14A           48.2786478123      -18.2262803690      -21.3285897206  MEMB      238             0.0000000000
     27989       238  POPC      H14B           49.6457660053      -17.2010942375      -20.8606630562  MEMB      238             0.0000000000
     27990       238  POPC      H14C           49.5775595269      -18.8155061900      -20.2275112041  MEMB      238             0.0000000000
     27991       238  POPC      C15            49.1864616802      -17.2052319669      -18.1743421021  MEMB      238             0.0000000000
     27992       238  POPC      H15A           48.6266652048      -16.8125527360      -17.3383810806  MEMB      238             0.0000000000
     27993       238  POPC      H15B           49.9627846680      -16.5081396191      -18.4532414441  MEMB      238             0.0000000000
     27994       238  POPC      H15C           49.6698670303      -18.1103583590      -17.8374957948  MEMB      238             0.0000000000
     27995       238  POPC      C11            46.5789300350      -15.5315188121      -18.8286029808  MEMB      238             0.0000000000
     27996       238  POPC      H11A           46.1793527314      -14.5390771870      -19.1281333619  MEMB      238             0.0000000000
     27997       238  POPC      H11B           47.3218216108      -15.2307282841      -18.0592148588  MEMB      238             0.0000000000
     27998       238  POPC      P              44.0139700069      -16.5617413103      -18.7423714729  MEMB      238             0.0000000000
     27999       238  POPC      O13            43.8075023871      -18.0458409019      -18.8646130213  MEMB      238             0.0000000000
     28000       238  POPC      O14            43.7397424788      -15.7878298627      -19.9436849984  MEMB      238             0.0000000000
     28001       238  POPC      O12            45.5247732921      -16.2551483450      -18.1797112676  MEMB      238             0.0000000000
     28002       238  POPC      O11            43.1808509908      -15.9966031815      -17.5638999536  MEMB      238             0.0000000000
     28003       238  POPC      C1             43.4763918932      -14.7024907079      -17.1176775252  MEMB      238             0.0000000000
     28004       238  POPC      HA             42.6537749465      -14.0310695372      -17.4445047111  MEMB      238             0.0000000000
     28005       238  POPC      HB             44.3546301300      -14.2041387770      -17.5809961016  MEMB      238             0.0000000000
     28006       238  POPC      C2             43.6879431206      -14.6252292787      -15.5037934954  MEMB      238             0.0000000000
     28007       238  POPC      HS             44.1293921589      -13.6248726285      -15.3069930339  MEMB      238             0.0000000000
     28008       238  POPC      O21            44.6815069277      -15.5105862673      -15.0077177601  MEMB      238             0.0000000000
     28009       238  POPC      C21            45.9696649724      -15.1186285368      -15.1088895649  MEMB      238             0.0000000000
     28010       238  POPC      O22            46.4402345950      -14.0629256226      -15.5184554998  MEMB      238             0.0000000000
     28011       238  POPC      C22            46.7513361080      -16.3578792904      -14.6530369369  MEMB      238             0.0000000000
     28012       238  POPC      H2R            47.0472839678      -16.8522096789      -15.6029704265  MEMB      238             0.0000000000
     28013       238  POPC      H2S            46.1673000021      -16.9904705900      -13.9508609426  MEMB      238             0.0000000000
     28014       238  POPC      C3             42.3350615586      -14.8692904016      -14.7177614601  MEMB      238             0.0000000000
     28015       238  POPC      HX             41.9927789125      -15.8746235636      -15.0440571910  MEMB      238             0.0000000000
     28016       238  POPC      HY             41.4860100278      -14.2133199946      -15.0060931782  MEMB      238             0.0000000000
     28017       238  POPC      O31            42.4878455869      -14.9231153644      -13.2719328889  MEMB      238             0.0000000000
     28018       238  POPC      C31            42.5340109370      -13.7913137805      -12.6832073952  MEMB      238             0.0000000000
     28019       238  POPC      O32            42.4728662164      -12.6964046827      -13.2254922876  MEMB      238             0.0000000000
     28020       238  POPC      C32            43.0595012845      -14.0396535506      -11.2532232381  MEMB      238             0.0000000000
     28021       238  POPC      H2X            43.0679590913      -15.1379230246      -11.0857324620  MEMB      238             0.0000000000
     28022       238  POPC      H2Y            42.3787041748      -13.5983112755      -10.4942416084  MEMB      238             0.0000000000
     28023       238  POPC      C23            48.0568806756      -15.9169647670      -14.0485276217  MEMB      238             0.0000000000
     28024       238  POPC      H3R            47.7328640891      -15.2912215124      -13.1895867325  MEMB      238             0.0000000000
     28025       238  POPC      H3S            48.7106175105      -15.1850630142      -14.5693620833  MEMB      238             0.0000000000
     28026       238  POPC      C24            48.9796779176      -17.0148699742      -13.4548617503  MEMB      238             0.0000000000
     28027       238  POPC      H4R            49.7044746119      -16.5617475948      -12.7451639436  MEMB      238             0.0000000000
     28028       238  POPC      H4S            49.6277455842      -17.5042034807      -14.2130716419  MEMB      238             0.0000000000
     28029       238  POPC      C25            48.2912255536      -18.1604398587      -12.8571790082  MEMB      238             0.0000000000
     28030       238  POPC      H5R            48.9798167042      -18.9696303844      -12.5325659143  MEMB      238             0.0000000000
     28031       238  POPC      H5S            47.5520994185      -18.6747729263      -13.5079285802  MEMB      238             0.0000000000
     28032       238  POPC      C26            47.5610879926      -17.6361202566      -11.5804509240  MEMB      238             0.0000000000
     28033       238  POPC      H6R            46.7492939274      -16.9331933781      -11.8654159829  MEMB      238             0.0000000000
     28034       238  POPC      H6S            48.2527705959      -17.0292187110      -10.9579016659  MEMB      238             0.0000000000
     28035       238  POPC      C27            47.0758381276      -18.7369582652      -10.6687085265  MEMB      238             0.0000000000
     28036       238  POPC      H7R            47.8449315081      -19.5290319306      -10.7929498922  MEMB      238             0.0000000000
     28037       238  POPC      H7S            46.1846439856      -19.1395933004      -11.1959455181  MEMB      238             0.0000000000
     28038       238  POPC      C28            46.8166836618      -18.3253284793       -9.1221658003  MEMB      238             0.0000000000
     28039       238  POPC      H8R            45.9611663689      -17.6501338925       -9.3378587124  MEMB      238             0.0000000000
     28040       238  POPC      H8S            47.7402611595      -17.7835130773       -8.8259194034  MEMB      238             0.0000000000
     28041       238  POPC      C29            46.5569881935      -19.5061352264       -8.2786975615  MEMB      238             0.0000000000
     28042       238  POPC      H91            47.4742305994      -20.1069683098       -8.1911417246  MEMB      238             0.0000000000
     28043       238  POPC      C210           45.3586502448      -19.8395659328       -7.7309847980  MEMB      238             0.0000000000
     28044       238  POPC      H101           45.2990911581      -20.6629514330       -7.0040113419  MEMB      238             0.0000000000
     28045       238  POPC      C211           44.0090621556      -19.1211733658       -7.8789563955  MEMB      238             0.0000000000
     28046       238  POPC      H11R           43.2728563765      -19.8574292032       -8.2665769192  MEMB      238             0.0000000000
     28047       238  POPC      H11S           44.0589048509      -18.3844315434       -8.7090459372  MEMB      238             0.0000000000
     28048       238  POPC      C212           43.6134935004      -18.4367210705       -6.6267434251  MEMB      238             0.0000000000
     28049       238  POPC      H12R           43.5171296112      -19.0536487163       -5.7078116383  MEMB      238             0.0000000000
     28050       238  POPC      H12S           42.5613945710      -18.1888303320       -6.8835685845  MEMB      238             0.0000000000
     28051       238  POPC      C213           44.3469641049      -17.1236811950       -6.4107076911  MEMB      238             0.0000000000
     28052       238  POPC      H13R           44.2088649919      -16.5504555078       -7.3523342639  MEMB      238             0.0000000000
     28053       238  POPC      H13S           45.4116282842      -17.4381134794       -6.3666222879  MEMB      238             0.0000000000
     28054       238  POPC      C214           43.8896031363      -16.1567454854       -5.3439029517  MEMB      238             0.0000000000
     28055       238  POPC      H14R           44.5066764181      -15.2330401354       -5.3615050958  MEMB      238             0.0000000000
     28056       238  POPC      H14S           43.9392344751      -16.6015985593       -4.3270625783  MEMB      238             0.0000000000
     28057       238  POPC      C215           42.4676895769      -15.6063362003       -5.6683201879  MEMB      238             0.0000000000
     28058       238  POPC      H15R           41.7891494646      -16.4774923280       -5.5458814308  MEMB      238             0.0000000000
     28059       238  POPC      H15S           42.5126791762      -15.2635751649       -6.7241672348  MEMB      238             0.0000000000
     28060       238  POPC      C216           42.1029473965      -14.4974748363       -4.6766491184  MEMB      238             0.0000000000
     28061       238  POPC      H16R           40.9934997721      -14.4654849823       -4.7258798289  MEMB      238             0.0000000000
     28062       238  POPC      H16S           42.5334455055      -13.5149154280       -4.9657334367  MEMB      238             0.0000000000
     28063       238  POPC      C217           42.1996140829      -14.6653590902       -3.1705602893  MEMB      238             0.0000000000
     28064       238  POPC      H17R           43.2064569916      -15.0904421720       -2.9708284417  MEMB      238             0.0000000000
     28065       238  POPC      H17S           41.3773448768      -15.3725613047       -2.9296051880  MEMB      238             0.0000000000
     28066       238  POPC      C218           42.1830749184      -13.3001414005       -2.5685087348  MEMB      238             0.0000000000
     28067       238  POPC      H18R           42.4276645962      -13.3480610742       -1.4858257689  MEMB      238             0.0000000000
     28068       238  POPC      H18S           41.1815031296      -12.8237693780       -2.6336566578  MEMB      238             0.0000000000
     28069       238  POPC      H18T           43.0034078434      -12.6576099736       -2.9539010654  MEMB      238             0.0000000000
     28070       238  POPC      C33            44.5243106067      -13.4530039897      -10.9299736737  MEMB      238             0.0000000000
     28071       238  POPC      H3X            44.4648453380      -13.5244440739       -9.8228683546  MEMB      238             0.0000000000
     28072       238  POPC      H3Y            44.7182919682      -12.3886333614      -11.1825749912  MEMB      238             0.0000000000
     28073       238  POPC      C34            45.6874908118      -14.3273671458      -11.2690909931  MEMB      238             0.0000000000
     28074       238  POPC      H4X            45.7586442375      -14.5669648532      -12.3516119162  MEMB      238             0.0000000000
     28075       238  POPC      H4Y            45.5303840603      -15.3075574169      -10.7702270506  MEMB      238             0.0000000000
     28076       238  POPC      C35            46.9732686621      -13.6954956236      -10.8488538222  MEMB      238             0.0000000000
     28077       238  POPC      H5X            47.0792663694      -12.6412743113      -11.1830741690  MEMB      238             0.0000000000
     28078       238  POPC      H5Y            47.7375883267      -14.1759190837      -11.4964112404  MEMB      238             0.0000000000
     28079       238  POPC      C36            47.3386813624      -13.6635141366       -9.3908256287  MEMB      238             0.0000000000
     28080       238  POPC      H6X            46.6447497532      -13.0107210875       -8.8192997556  MEMB      238             0.0000000000
     28081       238  POPC      H6Y            48.3028582482      -13.1260556852       -9.2650389160  MEMB      238             0.0000000000
     28082       238  POPC      C37            47.5370358387      -15.0322648770       -8.7858512202  MEMB      238             0.0000000000
     28083       238  POPC      H7X            48.4088786742      -15.5690381334       -9.2172278811  MEMB      238             0.0000000000
     28084       238  POPC      H7Y            46.6168554365      -15.6537729187       -8.8221372816  MEMB      238             0.0000000000
     28085       238  POPC      C38            47.8864404203      -14.7146427861       -7.3195089104  MEMB      238             0.0000000000
     28086       238  POPC      H8X            46.9303172049      -14.3598130242       -6.8787765500  MEMB      238             0.0000000000
     28087       238  POPC      H8Y            48.5700771772      -13.8511304890       -7.1735354858  MEMB      238             0.0000000000
     28088       238  POPC      C39            48.4286143207      -15.8450887810       -6.5355653326  MEMB      238             0.0000000000
     28089       238  POPC      H9X            49.2920092098      -16.2239318452       -7.1232284095  MEMB      238             0.0000000000
     28090       238  POPC      H9Y            47.6950373680      -16.6793564037       -6.5491096208  MEMB      238             0.0000000000
     28091       238  POPC      C310           48.8271242094      -15.4567310441       -5.0427787866  MEMB      238             0.0000000000
     28092       238  POPC      H10X           47.8206106603      -15.1500992092       -4.6860884266  MEMB      238             0.0000000000
     28093       238  POPC      H10Y           49.3900763731      -14.5008027716       -4.9827224813  MEMB      238             0.0000000000
     28094       238  POPC      C311           49.4098061631      -16.6057904397       -4.1298369747  MEMB      238             0.0000000000
     28095       238  POPC      H11X           49.3358689374      -16.0984905884       -3.1441900754  MEMB      238             0.0000000000
     28096       238  POPC      H11Y           50.4634472599      -16.7774788431       -4.4375463055  MEMB      238             0.0000000000
     28097       238  POPC      C312           48.4253434997      -17.8777626211       -3.9587258950  MEMB      238             0.0000000000
     28098       238  POPC      H12X           49.0182895774      -18.6946360105       -3.4945558412  MEMB      238             0.0000000000
     28099       238  POPC      H12Y           48.0123344049      -18.2298087744       -4.9281627293  MEMB      238             0.0000000000
     28100       238  POPC      C313           47.1515725184      -17.6525826431       -3.1027022750  MEMB      238             0.0000000000
     28101       238  POPC      H13X           46.4002064195      -18.2470565633       -3.6651704671  MEMB      238             0.0000000000
     28102       238  POPC      H13Y           46.6793292528      -16.6800612469       -3.3586502978  MEMB      238             0.0000000000
     28103       238  POPC      C314           47.2905547394      -17.8353462292       -1.5567400950  MEMB      238             0.0000000000
     28104       238  POPC      H14X           48.0372794009      -17.1095200882       -1.1695724811  MEMB      238             0.0000000000
     28105       238  POPC      H14Y           47.6115412346      -18.8675541762       -1.3001557183  MEMB      238             0.0000000000
     28106       238  POPC      C315           45.9565187219      -17.7080503258       -0.8519484808  MEMB      238             0.0000000000
     28107       238  POPC      H15X           45.9893876995      -17.9618818907        0.2291654778  MEMB      238             0.0000000000
     28108       238  POPC      H15Y           45.3772313874      -18.4944017994       -1.3814761927  MEMB      238             0.0000000000
     28109       238  POPC      C316           45.3160612842      -16.3305170000       -0.9635706456  MEMB      238             0.0000000000
     28110       238  POPC      H16X           46.0877281980      -15.5946894009       -0.6514663496  MEMB      238             0.0000000000
     28111       238  POPC      H16Y           44.4303560188      -16.2605467705       -0.2965233428  MEMB      238             0.0000000000
     28112       238  POPC      H16Z           45.0564902831      -16.0574828758       -2.0087470751  MEMB      238             0.0000000000
     28113       239  POPC      N             -48.0822352320      -13.3738708263      -20.6973521030  MEMB      239             0.0000000000
     28114       239  POPC      C12           -47.8174404112      -11.9581332315      -20.3354797964  MEMB      239             0.0000000000
     28115       239  POPC      H12A          -48.2696524295      -11.2839198029      -21.0477581985  MEMB      239             0.0000000000
     28116       239  POPC      H12B          -46.7497718569      -11.8244213107      -20.2427167968  MEMB      239             0.0000000000
     28117       239  POPC      C13           -47.4438910122      -14.2630619093      -19.6213316787  MEMB      239             0.0000000000
     28118       239  POPC      H13A          -47.8673409927      -14.0205863850      -18.6578506505  MEMB      239             0.0000000000
     28119       239  POPC      H13B          -47.6329428253      -15.2938935707      -19.8821865848  MEMB      239             0.0000000000
     28120       239  POPC      H13C          -46.3692908968      -14.1637386369      -19.5792662226  MEMB      239             0.0000000000
     28121       239  POPC      C14           -49.5230775700      -13.6024083497      -20.8020678713  MEMB      239             0.0000000000
     28122       239  POPC      H14A          -49.7227854667      -14.6627395968      -20.7550070713  MEMB      239             0.0000000000
     28123       239  POPC      H14B          -50.0589530624      -13.3176558051      -19.9086734710  MEMB      239             0.0000000000
     28124       239  POPC      H14C          -49.8696883442      -13.2248494014      -21.7527044540  MEMB      239             0.0000000000
     28125       239  POPC      C15           -47.4446889271      -13.7107566534      -22.0324918045  MEMB      239             0.0000000000
     28126       239  POPC      H15A          -47.8360660346      -14.6541124988      -22.3836384340  MEMB      239             0.0000000000
     28127       239  POPC      H15B          -46.3770973989      -13.7491488357      -21.8738279413  MEMB      239             0.0000000000
     28128       239  POPC      H15C          -47.6852646001      -12.9265957927      -22.7350693249  MEMB      239             0.0000000000
     28129       239  POPC      C11           -48.1384185655      -11.4703567659      -18.8208086195  MEMB      239             0.0000000000
     28130       239  POPC      H11A          -49.2049730271      -11.6090951035      -18.5423590279  MEMB      239             0.0000000000
     28131       239  POPC      H11B          -48.0876457313      -10.3640722857      -18.7320518281  MEMB      239             0.0000000000
     28132       239  POPC      P             -45.9769479914      -11.5777094586      -17.3837323304  MEMB      239             0.0000000000
     28133       239  POPC      O13           -45.3790007069      -10.6911524550      -18.4636190986  MEMB      239             0.0000000000
     28134       239  POPC      O14           -45.1966957926      -12.7343108542      -16.9606358982  MEMB      239             0.0000000000
     28135       239  POPC      O12           -47.4418608269      -12.0791249081      -17.7640568629  MEMB      239             0.0000000000
     28136       239  POPC      O11           -46.3502972970      -10.5857483375      -16.1184239315  MEMB      239             0.0000000000
     28137       239  POPC      C1            -45.4698511566       -9.5890426902      -15.7260862916  MEMB      239             0.0000000000
     28138       239  POPC      HA            -46.0181375075       -8.9344127191      -15.0153383272  MEMB      239             0.0000000000
     28139       239  POPC      HB            -45.1664666040       -8.9561707249      -16.5873364967  MEMB      239             0.0000000000
     28140       239  POPC      C2            -44.2093046522      -10.0926586814      -15.0837812224  MEMB      239             0.0000000000
     28141       239  POPC      HS            -43.5231355089      -10.5529972486      -15.8264663453  MEMB      239             0.0000000000
     28142       239  POPC      O21           -44.5895786879      -11.1471259461      -14.1992262888  MEMB      239             0.0000000000
     28143       239  POPC      C21           -43.6257633798      -11.8901806029      -13.6125094213  MEMB      239             0.0000000000
     28144       239  POPC      O22           -42.4189652169      -11.8164293164      -13.6778956787  MEMB      239             0.0000000000
     28145       239  POPC      C22           -44.2941122818      -12.8639284119      -12.7125726251  MEMB      239             0.0000000000
     28146       239  POPC      H2R           -45.3325437235      -12.9475922874      -13.0985539240  MEMB      239             0.0000000000
     28147       239  POPC      H2S           -44.3262647050      -12.3177505030      -11.7456305798  MEMB      239             0.0000000000
     28148       239  POPC      C3            -43.5147736018       -8.9332569554      -14.3219574447  MEMB      239             0.0000000000
     28149       239  POPC      HX            -43.6536223441       -8.0151352136      -14.9319537211  MEMB      239             0.0000000000
     28150       239  POPC      HY            -42.4250949605       -9.1498356868      -14.3258432845  MEMB      239             0.0000000000
     28151       239  POPC      O31           -44.1217678778       -8.6542001769      -12.9300468775  MEMB      239             0.0000000000
     28152       239  POPC      C31           -43.3399208244       -8.9796495294      -11.9750996091  MEMB      239             0.0000000000
     28153       239  POPC      O32           -42.1702161110       -9.3342907447      -12.0484608697  MEMB      239             0.0000000000
     28154       239  POPC      C32           -43.9987962585       -8.7255933127      -10.6606229556  MEMB      239             0.0000000000
     28155       239  POPC      H2X           -43.6487593079       -7.7696419672      -10.2157041002  MEMB      239             0.0000000000
     28156       239  POPC      H2Y           -43.6712747100       -9.5128751071       -9.9484164144  MEMB      239             0.0000000000
     28157       239  POPC      C23           -43.5784627910      -14.2285374844      -12.4302484947  MEMB      239             0.0000000000
     28158       239  POPC      H3R           -42.4708603232      -14.1863377690      -12.3543748208  MEMB      239             0.0000000000
     28159       239  POPC      H3S           -43.9012844341      -14.9685851528      -13.1934240810  MEMB      239             0.0000000000
     28160       239  POPC      C24           -44.1314079347      -14.8303771485      -11.0933460607  MEMB      239             0.0000000000
     28161       239  POPC      H4R           -43.9704014090      -15.9294328587      -11.1151305062  MEMB      239             0.0000000000
     28162       239  POPC      H4S           -45.2163715978      -14.6123992088      -10.9950590567  MEMB      239             0.0000000000
     28163       239  POPC      C25           -43.3901841471      -14.1933363407       -9.8530733799  MEMB      239             0.0000000000
     28164       239  POPC      H5R           -43.2534682488      -13.0992496355       -9.9894703626  MEMB      239             0.0000000000
     28165       239  POPC      H5S           -42.3795817574      -14.6547259013       -9.8641883494  MEMB      239             0.0000000000
     28166       239  POPC      C26           -44.0567520853      -14.5282897758       -8.5724889518  MEMB      239             0.0000000000
     28167       239  POPC      H6R           -43.8567254606      -15.6035921319       -8.3774609700  MEMB      239             0.0000000000
     28168       239  POPC      H6S           -45.1516939391      -14.4305647511       -8.7333389332  MEMB      239             0.0000000000
     28169       239  POPC      C27           -43.6756414162      -13.6585043350       -7.3459382887  MEMB      239             0.0000000000
     28170       239  POPC      H7R           -44.4446286095      -13.9623369686       -6.6038698630  MEMB      239             0.0000000000
     28171       239  POPC      H7S           -43.9162616126      -12.6045162451       -7.6019309769  MEMB      239             0.0000000000
     28172       239  POPC      C28           -42.2409334204      -13.9041844311       -6.8560560581  MEMB      239             0.0000000000
     28173       239  POPC      H8R           -42.1567244916      -13.1972853604       -6.0031061249  MEMB      239             0.0000000000
     28174       239  POPC      H8S           -41.4335988758      -13.6693709661       -7.5822759568  MEMB      239             0.0000000000
     28175       239  POPC      C29           -41.9684850924      -15.3908482911       -6.4192683135  MEMB      239             0.0000000000
     28176       239  POPC      H91           -41.2931764102      -15.9769686797       -7.0599091948  MEMB      239             0.0000000000
     28177       239  POPC      C210          -42.6070216238      -16.0794458139       -5.4558826249  MEMB      239             0.0000000000
     28178       239  POPC      H101          -42.2083387512      -17.0969768334       -5.3306527307  MEMB      239             0.0000000000
     28179       239  POPC      C211          -43.7281662120      -15.6089820829       -4.5002383921  MEMB      239             0.0000000000
     28180       239  POPC      H11R          -44.7315200475      -16.0269298619       -4.7302844002  MEMB      239             0.0000000000
     28181       239  POPC      H11S          -43.8470195699      -14.5043650481       -4.5042578728  MEMB      239             0.0000000000
     28182       239  POPC      C212          -43.5001625824      -15.9910564494       -2.9826018522  MEMB      239             0.0000000000
     28183       239  POPC      H12R          -43.4236057658      -17.0803206508       -2.7777524659  MEMB      239             0.0000000000
     28184       239  POPC      H12S          -44.3900867094      -15.5771878007       -2.4619588888  MEMB      239             0.0000000000
     28185       239  POPC      C213          -42.2508094413      -15.3311532696       -2.2220432943  MEMB      239             0.0000000000
     28186       239  POPC      H13R          -42.3022230206      -14.2254403647       -2.3173134575  MEMB      239             0.0000000000
     28187       239  POPC      H13S          -41.2864871960      -15.6740445992       -2.6542807539  MEMB      239             0.0000000000
     28188       239  POPC      C214          -42.3641908954      -15.8110727895       -0.7225380542  MEMB      239             0.0000000000
     28189       239  POPC      H14R          -41.5772944353      -15.2940482833       -0.1327915509  MEMB      239             0.0000000000
     28190       239  POPC      H14S          -42.2531543736      -16.9158880248       -0.6854622933  MEMB      239             0.0000000000
     28191       239  POPC      C215          -43.6771566913      -15.4282912896        0.0141813058  MEMB      239             0.0000000000
     28192       239  POPC      H15R          -43.5776411540      -15.7548169448        1.0714405405  MEMB      239             0.0000000000
     28193       239  POPC      H15S          -44.5268336702      -15.9629354956       -0.4617672101  MEMB      239             0.0000000000
     28194       239  POPC      C216          -44.1425139841      -13.9292896327       -0.0077057734  MEMB      239             0.0000000000
     28195       239  POPC      H16R          -45.0168819084      -13.8082916875        0.6669514152  MEMB      239             0.0000000000
     28196       239  POPC      H16S          -44.4621370125      -13.6761820963       -1.0411938168  MEMB      239             0.0000000000
     28197       239  POPC      C217          -42.9645646214      -13.0018061525        0.4427216569  MEMB      239             0.0000000000
     28198       239  POPC      H17R          -43.4017181589      -12.0353900103        0.1121816480  MEMB      239             0.0000000000
     28199       239  POPC      H17S          -42.0777183292      -13.3172471091       -0.1474655801  MEMB      239             0.0000000000
     28200       239  POPC      C218          -42.5896458612      -13.0193534956        1.9345585762  MEMB      239             0.0000000000
     28201       239  POPC      H18R          -42.7956182549      -14.0003887970        2.4135837332  MEMB      239             0.0000000000
     28202       239  POPC      H18S          -43.2233896232      -12.3167689979        2.5168517830  MEMB      239             0.0000000000
     28203       239  POPC      H18T          -41.5352547936      -12.7119768585        2.1021888588  MEMB      239             0.0000000000
     28204       239  POPC      C33           -45.5635052598       -8.7793763628      -10.6560820255  MEMB      239             0.0000000000
     28205       239  POPC      H3X           -45.9060862745       -7.7762539701      -10.9888052185  MEMB      239             0.0000000000
     28206       239  POPC      H3Y           -45.9629418979       -8.8224858588       -9.6202667078  MEMB      239             0.0000000000
     28207       239  POPC      C34           -46.2709897840      -10.0127510019      -11.3091861689  MEMB      239             0.0000000000
     28208       239  POPC      H4X           -45.8935177152      -10.8245059379      -10.6512425680  MEMB      239             0.0000000000
     28209       239  POPC      H4Y           -46.0283041089      -10.1064688615      -12.3892980125  MEMB      239             0.0000000000
     28210       239  POPC      C35           -47.7870406503      -10.1169092922      -11.1191103705  MEMB      239             0.0000000000
     28211       239  POPC      H5X           -48.2218944569      -10.7215654764      -11.9434978377  MEMB      239             0.0000000000
     28212       239  POPC      H5Y           -48.1747710383       -9.1061441470      -11.3687896325  MEMB      239             0.0000000000
     28213       239  POPC      C36           -48.2079393103      -10.5084434412       -9.7013908463  MEMB      239             0.0000000000
     28214       239  POPC      H6X           -49.2146616479      -10.0911092333       -9.4853752833  MEMB      239             0.0000000000
     28215       239  POPC      H6Y           -47.5014539575      -10.0703255971       -8.9643347822  MEMB      239             0.0000000000
     28216       239  POPC      C37           -48.1730840750      -12.0635783946       -9.3766924423  MEMB      239             0.0000000000
     28217       239  POPC      H7X           -47.0975272090      -12.3297364680       -9.2950927719  MEMB      239             0.0000000000
     28218       239  POPC      H7Y           -48.5081216508      -12.4551597757      -10.3609355286  MEMB      239             0.0000000000
     28219       239  POPC      C38           -48.8523131465      -12.5383504267       -8.1137943276  MEMB      239             0.0000000000
     28220       239  POPC      H8X           -48.5298977451      -13.5948318498       -7.9945617783  MEMB      239             0.0000000000
     28221       239  POPC      H8Y           -49.9583047924      -12.4651372669       -8.0380075080  MEMB      239             0.0000000000
     28222       239  POPC      C39           -48.3217149494      -11.8945814813       -6.8246402420  MEMB      239             0.0000000000
     28223       239  POPC      H9X           -48.7887471233      -12.4892434329       -6.0106507293  MEMB      239             0.0000000000
     28224       239  POPC      H9Y           -48.7069839939      -10.8525303004       -6.8289103097  MEMB      239             0.0000000000
     28225       239  POPC      C310          -46.7903875679      -12.1896719098       -6.6637653503  MEMB      239             0.0000000000
     28226       239  POPC      H10X          -46.2504550277      -11.7863180846       -7.5469984217  MEMB      239             0.0000000000
     28227       239  POPC      H10Y          -46.5933567719      -13.2804773209       -6.5886441984  MEMB      239             0.0000000000
     28228       239  POPC      C311          -46.2081791979      -11.7040540986       -5.3427235118  MEMB      239             0.0000000000
     28229       239  POPC      H11X          -45.1440037683      -12.0231808521       -5.3458297056  MEMB      239             0.0000000000
     28230       239  POPC      H11Y          -46.9642021650      -11.9823836611       -4.5776853982  MEMB      239             0.0000000000
     28231       239  POPC      C312          -46.2370716568      -10.1365042753       -5.3734588048  MEMB      239             0.0000000000
     28232       239  POPC      H12X          -47.2194780237       -9.6461618251       -5.2038619577  MEMB      239             0.0000000000
     28233       239  POPC      H12Y          -45.9029242794       -9.6768984514       -6.3281468941  MEMB      239             0.0000000000
     28234       239  POPC      C313          -45.3853234706       -9.6309504058       -4.2366170456  MEMB      239             0.0000000000
     28235       239  POPC      H13X          -45.3520121613       -8.5294655191       -4.3778319884  MEMB      239             0.0000000000
     28236       239  POPC      H13Y          -44.3195689422       -9.9438650676       -4.2605537182  MEMB      239             0.0000000000
     28237       239  POPC      C314          -45.9977576493      -10.0166975664       -2.8258087889  MEMB      239             0.0000000000
     28238       239  POPC      H14X          -46.1398396675      -11.1050554740       -2.6537321041  MEMB      239             0.0000000000
     28239       239  POPC      H14Y          -46.9166540649       -9.4201638081       -2.6411527779  MEMB      239             0.0000000000
     28240       239  POPC      C315          -45.0222753246       -9.4788559500       -1.7004486083  MEMB      239             0.0000000000
     28241       239  POPC      H15X          -44.7346280781       -8.4255442662       -1.9056680598  MEMB      239             0.0000000000
     28242       239  POPC      H15Y          -44.1218456821      -10.1280199601       -1.7466379773  MEMB      239             0.0000000000
     28243       239  POPC      C316          -45.3294051705       -9.7104770357       -0.1932815420  MEMB      239             0.0000000000
     28244       239  POPC      H16X          -44.5362166755       -9.2516345706        0.4349194159  MEMB      239             0.0000000000
     28245       239  POPC      H16Y          -45.3269228193      -10.7823272429        0.0990412177  MEMB      239             0.0000000000
     28246       239  POPC      H16Z          -46.2320234093       -9.1352877801        0.1046424055  MEMB      239             0.0000000000
     28247       240  POPC      N              12.7931082759      -45.0957421106      -19.5235957323  MEMB      240             0.0000000000
     28248       240  POPC      C12            13.9739301939      -46.0406593539      -19.2033324670  MEMB      240             0.0000000000
     28249       240  POPC      H12A           13.9470841583      -46.2956482167      -18.1542089828  MEMB      240             0.0000000000
     28250       240  POPC      H12B           14.9409547836      -45.5826148831      -19.3498207548  MEMB      240             0.0000000000
     28251       240  POPC      C13            12.8660402799      -44.4631615164      -20.9489264655  MEMB      240             0.0000000000
     28252       240  POPC      H13A           13.8087558219      -43.9491358763      -21.0649651070  MEMB      240             0.0000000000
     28253       240  POPC      H13B           12.8138358156      -45.3331490361      -21.5867323848  MEMB      240             0.0000000000
     28254       240  POPC      H13C           11.9536362775      -43.9206089527      -21.1478123729  MEMB      240             0.0000000000
     28255       240  POPC      C14            11.4762334924      -45.7923159827      -19.5155684573  MEMB      240             0.0000000000
     28256       240  POPC      H14A           11.4242496279      -46.4900893153      -18.6928837953  MEMB      240             0.0000000000
     28257       240  POPC      H14B           10.6318964223      -45.1250851283      -19.6066625912  MEMB      240             0.0000000000
     28258       240  POPC      H14C           11.3222709741      -46.3744669688      -20.4121150961  MEMB      240             0.0000000000
     28259       240  POPC      C15            12.8191790656      -43.9671236558      -18.5322389726  MEMB      240             0.0000000000
     28260       240  POPC      H15A           12.5592383691      -44.3968895740      -17.5761364966  MEMB      240             0.0000000000
     28261       240  POPC      H15B           12.1774748442      -43.1511602011      -18.8302651076  MEMB      240             0.0000000000
     28262       240  POPC      H15C           13.8309095820      -43.6283089177      -18.3648893497  MEMB      240             0.0000000000
     28263       240  POPC      C11            13.9831229965      -47.4328921600      -19.9675058610  MEMB      240             0.0000000000
     28264       240  POPC      H11A           15.0034110717      -47.8376415324      -19.7957181548  MEMB      240             0.0000000000
     28265       240  POPC      H11B           13.9762578224      -47.2775709640      -21.0675736027  MEMB      240             0.0000000000
     28266       240  POPC      P              12.9507633115      -49.0837964762      -18.1683733588  MEMB      240             0.0000000000
     28267       240  POPC      O13            12.0285385492      -50.2601682714      -18.2405280920  MEMB      240             0.0000000000
     28268       240  POPC      O14            12.7085280913      -48.0649147887      -17.1069058067  MEMB      240             0.0000000000
     28269       240  POPC      O12            13.0045268087      -48.4024386524      -19.6453007885  MEMB      240             0.0000000000
     28270       240  POPC      O11            14.4012088398      -49.6314578261      -18.1477240310  MEMB      240             0.0000000000
     28271       240  POPC      C1             15.4042437511      -49.3939162309      -17.1587841537  MEMB      240             0.0000000000
     28272       240  POPC      HA             15.3079104743      -48.3471290169      -16.7992322755  MEMB      240             0.0000000000
     28273       240  POPC      HB             16.3939798806      -49.3123992796      -17.6568787103  MEMB      240             0.0000000000
     28274       240  POPC      C2             15.3539791832      -50.4171720088      -16.0426175892  MEMB      240             0.0000000000
     28275       240  POPC      HS             15.4842311988      -51.4174168160      -16.5083062191  MEMB      240             0.0000000000
     28276       240  POPC      O21            14.1889220349      -50.2351254400      -15.2873906782  MEMB      240             0.0000000000
     28277       240  POPC      C21            13.5877738983      -51.3621233963      -14.9700824394  MEMB      240             0.0000000000
     28278       240  POPC      O22            14.0545621698      -52.4621470970      -15.1639961093  MEMB      240             0.0000000000
     28279       240  POPC      C22            12.2837254322      -51.1943512943      -14.2336541744  MEMB      240             0.0000000000
     28280       240  POPC      H2R            11.7236189733      -52.1503390538      -14.3154423230  MEMB      240             0.0000000000
     28281       240  POPC      H2S            11.6961943955      -50.4443670017      -14.8051890281  MEMB      240             0.0000000000
     28282       240  POPC      C3             16.5254337324      -50.2599267646      -15.0403416491  MEMB      240             0.0000000000
     28283       240  POPC      HX             17.4452683871      -50.3986039336      -15.6477902221  MEMB      240             0.0000000000
     28284       240  POPC      HY             16.2372078604      -51.0829249168      -14.3519225194  MEMB      240             0.0000000000
     28285       240  POPC      O31            16.5346909226      -48.9559109317      -14.4176278164  MEMB      240             0.0000000000
     28286       240  POPC      C31            16.9025363179      -48.8235630562      -13.1421237913  MEMB      240             0.0000000000
     28287       240  POPC      O32            17.3623012530      -49.7589729606      -12.4497212907  MEMB      240             0.0000000000
     28288       240  POPC      C32            16.7471203306      -47.3864929465      -12.6643824257  MEMB      240             0.0000000000
     28289       240  POPC      H2X            17.3216788455      -46.6773239526      -13.2978511750  MEMB      240             0.0000000000
     28290       240  POPC      H2Y            17.0892501451      -47.2740765412      -11.6133679025  MEMB      240             0.0000000000
     28291       240  POPC      C23            12.4479214837      -50.7290105063      -12.7358063131  MEMB      240             0.0000000000
     28292       240  POPC      H3R            11.4425676800      -50.5613310909      -12.2936880768  MEMB      240             0.0000000000
     28293       240  POPC      H3S            12.8246610680      -49.6842928929      -12.7049264764  MEMB      240             0.0000000000
     28294       240  POPC      C24            13.3666683855      -51.6031159635      -11.7916240524  MEMB      240             0.0000000000
     28295       240  POPC      H4R            14.4071761141      -51.5379719842      -12.1755779363  MEMB      240             0.0000000000
     28296       240  POPC      H4S            12.9983773009      -52.6450310498      -11.9060588111  MEMB      240             0.0000000000
     28297       240  POPC      C25            13.3293674154      -51.0735355218      -10.2999305453  MEMB      240             0.0000000000
     28298       240  POPC      H5R            13.9985509391      -51.7624912032       -9.7414919237  MEMB      240             0.0000000000
     28299       240  POPC      H5S            12.2673381821      -51.1293709350       -9.9785319276  MEMB      240             0.0000000000
     28300       240  POPC      C26            14.0317458083      -49.7330722069      -10.0970831997  MEMB      240             0.0000000000
     28301       240  POPC      H6R            13.4295568521      -48.9188792044      -10.5540074222  MEMB      240             0.0000000000
     28302       240  POPC      H6S            14.9840074803      -49.7212778672      -10.6692542741  MEMB      240             0.0000000000
     28303       240  POPC      C27            14.2937260281      -49.3483587526       -8.6601713885  MEMB      240             0.0000000000
     28304       240  POPC      H7R            14.9436877261      -50.1116545403       -8.1813702495  MEMB      240             0.0000000000
     28305       240  POPC      H7S            13.3461855356      -49.3995869217       -8.0823624280  MEMB      240             0.0000000000
     28306       240  POPC      C28            15.0070311952      -47.9934684183       -8.4784955989  MEMB      240             0.0000000000
     28307       240  POPC      H8R            14.7333269769      -47.5077744735       -7.5175022808  MEMB      240             0.0000000000
     28308       240  POPC      H8S            14.5385284039      -47.3234285184       -9.2307408692  MEMB      240             0.0000000000
     28309       240  POPC      C29            16.5339309458      -47.9509218928       -8.6168732252  MEMB      240             0.0000000000
     28310       240  POPC      H91            17.0984113234      -48.8022745335       -9.0249910313  MEMB      240             0.0000000000
     28311       240  POPC      C210           17.2454377232      -46.8811790444       -8.3131925097  MEMB      240             0.0000000000
     28312       240  POPC      H101           18.3453415991      -46.8710090312       -8.3028020075  MEMB      240             0.0000000000
     28313       240  POPC      C211           16.7426693859      -45.5879903097       -7.7704878296  MEMB      240             0.0000000000
     28314       240  POPC      H11R           15.6445633123      -45.4575447729       -7.8775800745  MEMB      240             0.0000000000
     28315       240  POPC      H11S           17.3491463380      -44.7955960573       -8.2589730670  MEMB      240             0.0000000000
     28316       240  POPC      C212           16.9865504116      -45.3249007739       -6.2639563149  MEMB      240             0.0000000000
     28317       240  POPC      H12R           18.0684048715      -45.4719711210       -6.0583292392  MEMB      240             0.0000000000
     28318       240  POPC      H12S           16.3988679751      -46.0988401983       -5.7254697369  MEMB      240             0.0000000000
     28319       240  POPC      C213           16.5601520418      -43.9949669837       -5.7602455054  MEMB      240             0.0000000000
     28320       240  POPC      H13R           15.6499252602      -43.7000584226       -6.3249028482  MEMB      240             0.0000000000
     28321       240  POPC      H13S           17.3108239962      -43.2176986972       -6.0184442946  MEMB      240             0.0000000000
     28322       240  POPC      C214           16.1760611183      -43.8580572014       -4.2836626290  MEMB      240             0.0000000000
     28323       240  POPC      H14R           16.2318308854      -42.7806803204       -4.0182018173  MEMB      240             0.0000000000
     28324       240  POPC      H14S           16.8797660690      -44.3666616059       -3.5905231803  MEMB      240             0.0000000000
     28325       240  POPC      C215           14.6801266275      -44.3681129935       -4.0412378859  MEMB      240             0.0000000000
     28326       240  POPC      H15R           14.4956519956      -45.2580862888       -4.6801731848  MEMB      240             0.0000000000
     28327       240  POPC      H15S           13.9812843817      -43.5208402400       -4.2087772652  MEMB      240             0.0000000000
     28328       240  POPC      C216           14.4426573870      -44.7439518726       -2.5690100695  MEMB      240             0.0000000000
     28329       240  POPC      H16R           13.3771791090      -44.5600745867       -2.3135372677  MEMB      240             0.0000000000
     28330       240  POPC      H16S           15.0073514285      -44.0031583722       -1.9634805821  MEMB      240             0.0000000000
     28331       240  POPC      C217           14.9153004680      -46.2090613183       -2.2272547258  MEMB      240             0.0000000000
     28332       240  POPC      H17R           16.0016995909      -46.3716906559       -2.3934164294  MEMB      240             0.0000000000
     28333       240  POPC      H17S           14.5017610949      -46.9617829227       -2.9320352809  MEMB      240             0.0000000000
     28334       240  POPC      C218           14.6424274019      -46.6074238377       -0.7508055397  MEMB      240             0.0000000000
     28335       240  POPC      H18R           15.1301167795      -45.9394493777       -0.0089884384  MEMB      240             0.0000000000
     28336       240  POPC      H18S           15.0912144560      -47.6072796684       -0.5685963801  MEMB      240             0.0000000000
     28337       240  POPC      H18T           13.5788752461      -46.7104089804       -0.4465493201  MEMB      240             0.0000000000
     28338       240  POPC      C33            15.2604564705      -47.0680665596      -12.8778105007  MEMB      240             0.0000000000
     28339       240  POPC      H3X            14.7215574580      -47.9383217263      -12.4458791128  MEMB      240             0.0000000000
     28340       240  POPC      H3Y            14.9303193807      -46.9765148615      -13.9346683847  MEMB      240             0.0000000000
     28341       240  POPC      C34            14.8937599495      -45.8013047333      -12.0149157368  MEMB      240             0.0000000000
     28342       240  POPC      H4X            15.5676780755      -44.9321716680      -12.1722790657  MEMB      240             0.0000000000
     28343       240  POPC      H4Y            14.9421421207      -46.1500618147      -10.9611852921  MEMB      240             0.0000000000
     28344       240  POPC      C35            13.4963086447      -45.3316488828      -12.2588658045  MEMB      240             0.0000000000
     28345       240  POPC      H5X            12.7392945873      -46.1448148238      -12.2554321712  MEMB      240             0.0000000000
     28346       240  POPC      H5Y            13.5056696762      -44.9497369735      -13.3021188760  MEMB      240             0.0000000000
     28347       240  POPC      C36            13.1157554425      -44.2238126087      -11.2306477618  MEMB      240             0.0000000000
     28348       240  POPC      H6X            12.0881003893      -43.9703355911      -11.5682799512  MEMB      240             0.0000000000
     28349       240  POPC      H6Y            13.7030024950      -43.2910698149      -11.3701204455  MEMB      240             0.0000000000
     28350       240  POPC      C37            12.9983401375      -44.6927791928       -9.7763823969  MEMB      240             0.0000000000
     28351       240  POPC      H7X            12.5208449167      -43.8469924471       -9.2369720613  MEMB      240             0.0000000000
     28352       240  POPC      H7Y            13.9787419163      -44.9696064620       -9.3330998677  MEMB      240             0.0000000000
     28353       240  POPC      C38            12.0128715832      -45.8568238143       -9.6576904697  MEMB      240             0.0000000000
     28354       240  POPC      H8X            12.4292263694      -46.7200131430      -10.2197166694  MEMB      240             0.0000000000
     28355       240  POPC      H8Y            11.0824941616      -45.5285195691      -10.1685087904  MEMB      240             0.0000000000
     28356       240  POPC      C39            11.7093643291      -46.2772098702       -8.1705209759  MEMB      240             0.0000000000
     28357       240  POPC      H9X            11.2052287052      -45.3878426700       -7.7355568989  MEMB      240             0.0000000000
     28358       240  POPC      H9Y            12.7520832534      -46.4054578900       -7.8091207617  MEMB      240             0.0000000000
     28359       240  POPC      C310           10.8184037274      -47.4567527314       -7.9815220944  MEMB      240             0.0000000000
     28360       240  POPC      H10X           11.3008196358      -48.3437926312       -8.4449395679  MEMB      240             0.0000000000
     28361       240  POPC      H10Y            9.8408879506      -47.3057410847       -8.4874656230  MEMB      240             0.0000000000
     28362       240  POPC      C311           10.5188858079      -47.8042316733       -6.5389203672  MEMB      240             0.0000000000
     28363       240  POPC      H11X            9.8260638980      -48.6670121463       -6.4392774567  MEMB      240             0.0000000000
     28364       240  POPC      H11Y           10.1546287657      -46.9302637737       -5.9576985672  MEMB      240             0.0000000000
     28365       240  POPC      C312           11.6809279694      -48.2123184868       -5.6984823662  MEMB      240             0.0000000000
     28366       240  POPC      H12X           12.3214358739      -47.3565746947       -5.3955419986  MEMB      240             0.0000000000
     28367       240  POPC      H12Y           12.3249828132      -48.7790148984       -6.4044353752  MEMB      240             0.0000000000
     28368       240  POPC      C313           11.3841407784      -49.1733703957       -4.4962772908  MEMB      240             0.0000000000
     28369       240  POPC      H13X           11.3318939375      -50.1832362007       -4.9564534034  MEMB      240             0.0000000000
     28370       240  POPC      H13Y           10.4097519721      -48.9005267897       -4.0375362887  MEMB      240             0.0000000000
     28371       240  POPC      C314           12.4760210839      -49.0448646427       -3.3708792633  MEMB      240             0.0000000000
     28372       240  POPC      H14X           12.3954934401      -48.0732103844       -2.8382220304  MEMB      240             0.0000000000
     28373       240  POPC      H14Y           13.4822084470      -49.0527454640       -3.8418846965  MEMB      240             0.0000000000
     28374       240  POPC      C315           12.4273086461      -50.1102630845       -2.3563222908  MEMB      240             0.0000000000
     28375       240  POPC      H15X           12.7282004185      -51.0243615208       -2.9114888897  MEMB      240             0.0000000000
     28376       240  POPC      H15Y           11.4166213587      -50.2090776952       -1.9056920407  MEMB      240             0.0000000000
     28377       240  POPC      C316           13.3861277336      -49.9439445806       -1.1309067444  MEMB      240             0.0000000000
     28378       240  POPC      H16X           13.4450054494      -50.8777843922       -0.5319097996  MEMB      240             0.0000000000
     28379       240  POPC      H16Y           13.0929321298      -49.0379803316       -0.5585552120  MEMB      240             0.0000000000
     28380       240  POPC      H16Z           14.3747063795      -49.7580655596       -1.6025869157  MEMB      240             0.0000000000
     28381       241  POPC      N             -32.7229309538      -37.7867517166      -20.5978773593  MEMB      241             0.0000000000
     28382       241  POPC      C12           -31.8276719328      -37.3404852418      -19.3866242619  MEMB      241             0.0000000000
     28383       241  POPC      H12A          -30.8420071489      -37.6520527975      -19.6993390508  MEMB      241             0.0000000000
     28384       241  POPC      H12B          -31.9844878677      -38.0100964231      -18.5539000444  MEMB      241             0.0000000000
     28385       241  POPC      C13           -32.5591591366      -36.8696507062      -21.8002660332  MEMB      241             0.0000000000
     28386       241  POPC      H13A          -31.5708355221      -36.9528662778      -22.2276904047  MEMB      241             0.0000000000
     28387       241  POPC      H13B          -33.2877237615      -37.1457837935      -22.5481590240  MEMB      241             0.0000000000
     28388       241  POPC      H13C          -32.6652673308      -35.8577424997      -21.4380742552  MEMB      241             0.0000000000
     28389       241  POPC      C14           -32.3083174166      -39.1781283942      -20.9113432922  MEMB      241             0.0000000000
     28390       241  POPC      H14A          -31.2963215079      -39.1519610246      -21.2876139736  MEMB      241             0.0000000000
     28391       241  POPC      H14B          -32.3806791857      -39.8408336555      -20.0616459574  MEMB      241             0.0000000000
     28392       241  POPC      H14C          -32.8073741802      -39.5809256451      -21.7803064071  MEMB      241             0.0000000000
     28393       241  POPC      C15           -34.1802737442      -37.7084432282      -20.1500505253  MEMB      241             0.0000000000
     28394       241  POPC      H15A          -34.3483425363      -38.6478258973      -19.6443696006  MEMB      241             0.0000000000
     28395       241  POPC      H15B          -34.8694107479      -37.5705000150      -20.9700883559  MEMB      241             0.0000000000
     28396       241  POPC      H15C          -34.3157124618      -36.9055488426      -19.4405316366  MEMB      241             0.0000000000
     28397       241  POPC      C11           -31.7798830065      -35.8255400402      -18.9705294268  MEMB      241             0.0000000000
     28398       241  POPC      H11A          -31.3590442642      -35.2635426470      -19.8315606116  MEMB      241             0.0000000000
     28399       241  POPC      H11B          -31.0814126983      -35.6464038420      -18.1253250342  MEMB      241             0.0000000000
     28400       241  POPC      P             -33.6045194969      -34.6158190881      -17.4416896209  MEMB      241             0.0000000000
     28401       241  POPC      O13           -35.1083484340      -34.3600748084      -17.5674982241  MEMB      241             0.0000000000
     28402       241  POPC      O14           -32.7335445870      -33.4551661366      -17.0745727682  MEMB      241             0.0000000000
     28403       241  POPC      O12           -33.0806095202      -35.2515754582      -18.7857602106  MEMB      241             0.0000000000
     28404       241  POPC      O11           -33.3726116770      -35.6942522826      -16.3137882795  MEMB      241             0.0000000000
     28405       241  POPC      C1            -34.0862070072      -36.8973937338      -16.3654345997  MEMB      241             0.0000000000
     28406       241  POPC      HA            -33.4957437400      -37.6724401944      -16.8992670669  MEMB      241             0.0000000000
     28407       241  POPC      HB            -35.0642599684      -36.8050906610      -16.8842925620  MEMB      241             0.0000000000
     28408       241  POPC      C2            -34.3145129909      -37.4335965184      -14.8446763713  MEMB      241             0.0000000000
     28409       241  POPC      HS            -35.2722811443      -37.0365999010      -14.4454332788  MEMB      241             0.0000000000
     28410       241  POPC      O21           -33.1587252737      -36.9866644037      -14.1138421832  MEMB      241             0.0000000000
     28411       241  POPC      C21           -33.3473911886      -35.9574165587      -13.2984541294  MEMB      241             0.0000000000
     28412       241  POPC      O22           -34.2838731924      -35.7270041718      -12.5887321649  MEMB      241             0.0000000000
     28413       241  POPC      C22           -32.0203423244      -35.2405137195      -13.2591157447  MEMB      241             0.0000000000
     28414       241  POPC      H2R           -32.0716786378      -34.4363078585      -14.0239281473  MEMB      241             0.0000000000
     28415       241  POPC      H2S           -31.1536940885      -35.9238880165      -13.3865576910  MEMB      241             0.0000000000
     28416       241  POPC      C3            -34.4050579978      -38.9384950469      -14.6850278960  MEMB      241             0.0000000000
     28417       241  POPC      HX            -33.4400514397      -39.3545876974      -15.0455139969  MEMB      241             0.0000000000
     28418       241  POPC      HY            -35.2117336396      -39.3756572012      -15.3115134787  MEMB      241             0.0000000000
     28419       241  POPC      O31           -34.7634313985      -39.2948938321      -13.3475786853  MEMB      241             0.0000000000
     28420       241  POPC      C31           -36.0745209493      -39.2048517538      -12.9183359133  MEMB      241             0.0000000000
     28421       241  POPC      O32           -36.9500667566      -38.8303948289      -13.6327320531  MEMB      241             0.0000000000
     28422       241  POPC      C32           -36.2007126162      -39.6972812185      -11.4671250732  MEMB      241             0.0000000000
     28423       241  POPC      H2X           -35.6558409720      -40.6652584397      -11.4457698811  MEMB      241             0.0000000000
     28424       241  POPC      H2Y           -37.2955272065      -39.8418099939      -11.3454143456  MEMB      241             0.0000000000
     28425       241  POPC      C23           -32.0280160415      -34.5595842055      -11.9429188903  MEMB      241             0.0000000000
     28426       241  POPC      H3R           -32.3396643540      -35.2640585754      -11.1423490817  MEMB      241             0.0000000000
     28427       241  POPC      H3S           -32.8309555843      -33.7921623387      -11.9688582079  MEMB      241             0.0000000000
     28428       241  POPC      C24           -30.7825618965      -33.8337298750      -11.4842819525  MEMB      241             0.0000000000
     28429       241  POPC      H4R           -30.5057951249      -33.1545570430      -12.3188153583  MEMB      241             0.0000000000
     28430       241  POPC      H4S           -29.8770880998      -34.4680942995      -11.3746471741  MEMB      241             0.0000000000
     28431       241  POPC      C25           -30.9033512961      -33.0775952467      -10.1813566866  MEMB      241             0.0000000000
     28432       241  POPC      H5R           -31.3867120220      -32.1169585723      -10.4603918949  MEMB      241             0.0000000000
     28433       241  POPC      H5S           -29.9014695241      -32.7732700553       -9.8099545339  MEMB      241             0.0000000000
     28434       241  POPC      C26           -31.6610090909      -33.8680047210       -9.0833618727  MEMB      241             0.0000000000
     28435       241  POPC      H6R           -31.4223191523      -34.9522280230       -9.0408404263  MEMB      241             0.0000000000
     28436       241  POPC      H6S           -32.7539481732      -33.9395383717       -9.2696097845  MEMB      241             0.0000000000
     28437       241  POPC      C27           -31.4484874896      -33.3491322062       -7.6001403164  MEMB      241             0.0000000000
     28438       241  POPC      H7R           -30.3962957859      -33.5112805674       -7.2824589665  MEMB      241             0.0000000000
     28439       241  POPC      H7S           -32.1949935283      -33.8888008622       -6.9790062474  MEMB      241             0.0000000000
     28440       241  POPC      C28           -31.6460679346      -31.8226258509       -7.3933400916  MEMB      241             0.0000000000
     28441       241  POPC      H8R           -30.9799597706      -31.2336610620       -8.0594793578  MEMB      241             0.0000000000
     28442       241  POPC      H8S           -31.3250850485      -31.4419504747       -6.4001752163  MEMB      241             0.0000000000
     28443       241  POPC      C29           -33.0819895067      -31.4202191054       -7.6204389714  MEMB      241             0.0000000000
     28444       241  POPC      H91           -33.5696020988      -31.6476587054       -8.5798681864  MEMB      241             0.0000000000
     28445       241  POPC      C210          -34.0173532377      -31.0526510185       -6.6771381705  MEMB      241             0.0000000000
     28446       241  POPC      H101          -35.0075385539      -30.6751755133       -6.9721729165  MEMB      241             0.0000000000
     28447       241  POPC      C211          -33.8400838999      -31.0289295014       -5.1593181002  MEMB      241             0.0000000000
     28448       241  POPC      H11R          -34.1122372699      -30.0376993025       -4.7377543922  MEMB      241             0.0000000000
     28449       241  POPC      H11S          -32.8083083851      -31.0301225096       -4.7472998712  MEMB      241             0.0000000000
     28450       241  POPC      C212          -34.6269570372      -32.1115984366       -4.3736292372  MEMB      241             0.0000000000
     28451       241  POPC      H12R          -35.5223598975      -32.4163052364       -4.9564921976  MEMB      241             0.0000000000
     28452       241  POPC      H12S          -35.0830875914      -31.6827701696       -3.4558211312  MEMB      241             0.0000000000
     28453       241  POPC      C213          -33.8073544810      -33.4520322995       -4.1477937659  MEMB      241             0.0000000000
     28454       241  POPC      H13R          -32.9805869415      -33.1926104912       -3.4524689597  MEMB      241             0.0000000000
     28455       241  POPC      H13S          -33.3929571180      -33.7954804711       -5.1197199274  MEMB      241             0.0000000000
     28456       241  POPC      C214          -34.6752488915      -34.5643382682       -3.5136852001  MEMB      241             0.0000000000
     28457       241  POPC      H14R          -34.0460487044      -35.4743853180       -3.4124798448  MEMB      241             0.0000000000
     28458       241  POPC      H14S          -35.4177736550      -34.8550873562       -4.2872756878  MEMB      241             0.0000000000
     28459       241  POPC      C215          -35.3959705663      -34.0952168997       -2.1820103499  MEMB      241             0.0000000000
     28460       241  POPC      H15R          -35.9228876027      -35.0072144481       -1.8285415420  MEMB      241             0.0000000000
     28461       241  POPC      H15S          -36.1499277256      -33.2982168301       -2.3571120870  MEMB      241             0.0000000000
     28462       241  POPC      C216          -34.3407219830      -33.5098869454       -1.1558079287  MEMB      241             0.0000000000
     28463       241  POPC      H16R          -34.1825240467      -32.4460384825       -1.4342348070  MEMB      241             0.0000000000
     28464       241  POPC      H16S          -33.3620718150      -34.0308670704       -1.0840816074  MEMB      241             0.0000000000
     28465       241  POPC      C217          -34.9768194342      -33.4672224901        0.2324853891  MEMB      241             0.0000000000
     28466       241  POPC      H17R          -34.2366412643      -32.9401235735        0.8717230424  MEMB      241             0.0000000000
     28467       241  POPC      H17S          -35.1206875336      -34.4701119701        0.6883747531  MEMB      241             0.0000000000
     28468       241  POPC      C218          -36.2388453535      -32.5822938200        0.2985950810  MEMB      241             0.0000000000
     28469       241  POPC      H18R          -36.9660046790      -32.9564917251       -0.4534278204  MEMB      241             0.0000000000
     28470       241  POPC      H18S          -35.9458065638      -31.5457466932        0.0265301558  MEMB      241             0.0000000000
     28471       241  POPC      H18T          -36.7782880261      -32.5588700651        1.2695606496  MEMB      241             0.0000000000
     28472       241  POPC      C33           -35.6028490855      -38.7432003319      -10.3956450726  MEMB      241             0.0000000000
     28473       241  POPC      H3X           -36.0286035458      -38.9798096240       -9.3971108849  MEMB      241             0.0000000000
     28474       241  POPC      H3Y           -36.1322135277      -37.7856403473      -10.5884472474  MEMB      241             0.0000000000
     28475       241  POPC      C34           -34.0848598055      -38.8035472237      -10.4578790938  MEMB      241             0.0000000000
     28476       241  POPC      H4X           -33.6856845999      -38.4325721448      -11.4260513251  MEMB      241             0.0000000000
     28477       241  POPC      H4Y           -33.8228535268      -39.8786083850      -10.3582936880  MEMB      241             0.0000000000
     28478       241  POPC      C35           -33.4072856363      -38.0279578778       -9.3791648725  MEMB      241             0.0000000000
     28479       241  POPC      H5X           -33.8270437174      -38.1319818041       -8.3557869903  MEMB      241             0.0000000000
     28480       241  POPC      H5Y           -33.5051983796      -36.9508195075       -9.6331476212  MEMB      241             0.0000000000
     28481       241  POPC      C36           -31.8051630489      -38.2002684122       -9.4179160663  MEMB      241             0.0000000000
     28482       241  POPC      H6X           -31.4405813308      -37.7472714294      -10.3645918694  MEMB      241             0.0000000000
     28483       241  POPC      H6Y           -31.4411828606      -39.2486362937       -9.4704931281  MEMB      241             0.0000000000
     28484       241  POPC      C37           -31.0664596666      -37.5771482091       -8.1189493068  MEMB      241             0.0000000000
     28485       241  POPC      H7X           -31.4167009748      -36.5392453601       -7.9334520638  MEMB      241             0.0000000000
     28486       241  POPC      H7Y           -29.9782561586      -37.5490500209       -8.3410866799  MEMB      241             0.0000000000
     28487       241  POPC      C38           -31.3216111896      -38.4201700816       -6.8103792157  MEMB      241             0.0000000000
     28488       241  POPC      H8X           -31.2457724567      -39.4667873868       -7.1752914116  MEMB      241             0.0000000000
     28489       241  POPC      H8Y           -32.3846168532      -38.3595987896       -6.4930916928  MEMB      241             0.0000000000
     28490       241  POPC      C39           -30.4121911248      -38.1185170340       -5.5740826744  MEMB      241             0.0000000000
     28491       241  POPC      H9X           -30.4457018854      -37.0316089898       -5.3464233829  MEMB      241             0.0000000000
     28492       241  POPC      H9Y           -29.3377631063      -38.3046634714       -5.7868614075  MEMB      241             0.0000000000
     28493       241  POPC      C310          -30.8324637513      -38.8702095957       -4.3154638695  MEMB      241             0.0000000000
     28494       241  POPC      H10X          -30.0685162786      -38.8126398711       -3.5108578352  MEMB      241             0.0000000000
     28495       241  POPC      H10Y          -30.9123222231      -39.9414015751       -4.5991746315  MEMB      241             0.0000000000
     28496       241  POPC      C311          -32.2092141242      -38.5519524796       -3.8164769734  MEMB      241             0.0000000000
     28497       241  POPC      H11X          -33.0157535473      -38.7325045826       -4.5589160190  MEMB      241             0.0000000000
     28498       241  POPC      H11Y          -32.2116453563      -37.4586219849       -3.6191358583  MEMB      241             0.0000000000
     28499       241  POPC      C312          -32.5679768048      -39.3594625834       -2.5595241362  MEMB      241             0.0000000000
     28500       241  POPC      H12X          -31.7901987631      -39.2538676541       -1.7732469268  MEMB      241             0.0000000000
     28501       241  POPC      H12Y          -32.5192431420      -40.4385066381       -2.8195441841  MEMB      241             0.0000000000
     28502       241  POPC      C313          -33.8868636909      -39.0857211679       -1.8971697134  MEMB      241             0.0000000000
     28503       241  POPC      H13X          -33.9737257029      -40.0189560998       -1.3006390165  MEMB      241             0.0000000000
     28504       241  POPC      H13Y          -34.7547623121      -39.1345360566       -2.5890437672  MEMB      241             0.0000000000
     28505       241  POPC      C314          -34.0553317487      -37.7637989068       -1.0638363213  MEMB      241             0.0000000000
     28506       241  POPC      H14X          -33.7170633242      -36.9244196818       -1.7083037407  MEMB      241             0.0000000000
     28507       241  POPC      H14Y          -33.2789316366      -37.8393918015       -0.2727560730  MEMB      241             0.0000000000
     28508       241  POPC      C315          -35.4456623174      -37.5363095186       -0.4225772596  MEMB      241             0.0000000000
     28509       241  POPC      H15X          -36.1945198755      -37.4483575477       -1.2385407551  MEMB      241             0.0000000000
     28510       241  POPC      H15Y          -35.4125699573      -36.5875378529        0.1545360831  MEMB      241             0.0000000000
     28511       241  POPC      C316          -35.9829239605      -38.6380442587        0.5546812538  MEMB      241             0.0000000000
     28512       241  POPC      H16X          -35.2346529121      -39.0189452269        1.2822304424  MEMB      241             0.0000000000
     28513       241  POPC      H16Y          -36.2212860875      -39.5380420415       -0.0515431002  MEMB      241             0.0000000000
     28514       241  POPC      H16Z          -36.8935367532      -38.2687428766        1.0730663236  MEMB      241             0.0000000000
     28515       242  POPC      N              26.7561697983       41.4651876221      -18.7186073374  MEMB      242             0.0000000000
     28516       242  POPC      C12            25.7129734563       41.6679840798      -17.5283360514  MEMB      242             0.0000000000
     28517       242  POPC      H12A           26.0417936926       42.1240531000      -16.6062307172  MEMB      242             0.0000000000
     28518       242  POPC      H12B           25.4679403817       40.6340542449      -17.3350801403  MEMB      242             0.0000000000
     28519       242  POPC      C13            26.8342448322       42.6287152004      -19.6478245697  MEMB      242             0.0000000000
     28520       242  POPC      H13A           26.3173082759       43.4269269743      -19.1359314333  MEMB      242             0.0000000000
     28521       242  POPC      H13B           27.8560728668       42.9467415788      -19.7931737794  MEMB      242             0.0000000000
     28522       242  POPC      H13C           26.2930526260       42.4091773515      -20.5562926418  MEMB      242             0.0000000000
     28523       242  POPC      C14            28.1610485272       41.0514336537      -18.2051771950  MEMB      242             0.0000000000
     28524       242  POPC      H14A           28.8695339259       40.7725157337      -18.9711103010  MEMB      242             0.0000000000
     28525       242  POPC      H14B           28.5095986531       41.9308657689      -17.6841092421  MEMB      242             0.0000000000
     28526       242  POPC      H14C           28.0847566513       40.2413819260      -17.4949689659  MEMB      242             0.0000000000
     28527       242  POPC      C15            26.1940348887       40.4052168378      -19.5878569371  MEMB      242             0.0000000000
     28528       242  POPC      H15A           25.9605667434       39.6511581861      -18.8507760242  MEMB      242             0.0000000000
     28529       242  POPC      H15B           26.8250895246       40.0437920541      -20.3863193095  MEMB      242             0.0000000000
     28530       242  POPC      H15C           25.2801528512       40.7451215708      -20.0522752170  MEMB      242             0.0000000000
     28531       242  POPC      C11            24.2999945521       42.2457796763      -17.8317485062  MEMB      242             0.0000000000
     28532       242  POPC      H11A           24.2752312299       43.3199679929      -18.1142858535  MEMB      242             0.0000000000
     28533       242  POPC      H11B           23.8081678049       42.2501960502      -16.8355517011  MEMB      242             0.0000000000
     28534       242  POPC      P              22.3691407699       41.8217210119      -19.5539869400  MEMB      242             0.0000000000
     28535       242  POPC      O13            21.5128864067       40.6189062833      -19.5161821440  MEMB      242             0.0000000000
     28536       242  POPC      O14            22.5789278915       42.3066763288      -20.9182744157  MEMB      242             0.0000000000
     28537       242  POPC      O12            23.7066325025       41.4496080496      -18.8493543548  MEMB      242             0.0000000000
     28538       242  POPC      O11            21.6187831910       42.8604337065      -18.6426515490  MEMB      242             0.0000000000
     28539       242  POPC      C1             20.4704186328       42.5251114213      -17.8062864023  MEMB      242             0.0000000000
     28540       242  POPC      HA             20.7410377035       41.7542540144      -17.0533818516  MEMB      242             0.0000000000
     28541       242  POPC      HB             19.6587405572       42.0086821263      -18.3619841855  MEMB      242             0.0000000000
     28542       242  POPC      C2             19.8952379062       43.7091909626      -16.9155579304  MEMB      242             0.0000000000
     28543       242  POPC      HS             19.6828751522       44.5027863849      -17.6635079665  MEMB      242             0.0000000000
     28544       242  POPC      O21            20.8236099987       44.2307036459      -15.9204865369  MEMB      242             0.0000000000
     28545       242  POPC      C21            21.8275592749       44.9077000008      -16.2748597027  MEMB      242             0.0000000000
     28546       242  POPC      O22            22.2454919201       45.0572212800      -17.4006514058  MEMB      242             0.0000000000
     28547       242  POPC      C22            22.4396691537       45.6191446222      -15.0004198702  MEMB      242             0.0000000000
     28548       242  POPC      H2R            21.6212194887       46.2935584264      -14.6693201104  MEMB      242             0.0000000000
     28549       242  POPC      H2S            23.3366385998       46.1287430416      -15.4128226047  MEMB      242             0.0000000000
     28550       242  POPC      C3             18.5761166685       43.2383093561      -16.1489929136  MEMB      242             0.0000000000
     28551       242  POPC      HX             17.9589771188       42.8600393238      -16.9918284135  MEMB      242             0.0000000000
     28552       242  POPC      HY             17.9325227359       44.0472465883      -15.7418953341  MEMB      242             0.0000000000
     28553       242  POPC      O31            18.9471511100       42.2497392773      -15.1935268405  MEMB      242             0.0000000000
     28554       242  POPC      C31            19.1121532302       42.6591884590      -13.9332908143  MEMB      242             0.0000000000
     28555       242  POPC      O32            18.9866261566       43.7935812056      -13.4992493292  MEMB      242             0.0000000000
     28556       242  POPC      C32            19.5286851066       41.4655100036      -13.0859528968  MEMB      242             0.0000000000
     28557       242  POPC      H2X            20.5899126630       41.2144221879      -13.2982548060  MEMB      242             0.0000000000
     28558       242  POPC      H2Y            18.8730032827       40.5949460996      -13.3016405143  MEMB      242             0.0000000000
     28559       242  POPC      C23            22.7693228907       44.5583332558      -13.9761631680  MEMB      242             0.0000000000
     28560       242  POPC      H3R            23.5384256082       43.8240683780      -14.2981210127  MEMB      242             0.0000000000
     28561       242  POPC      H3S            21.8729675743       43.9587038979      -13.7091181958  MEMB      242             0.0000000000
     28562       242  POPC      C24            23.1986437493       45.1862222132      -12.6142036066  MEMB      242             0.0000000000
     28563       242  POPC      H4R            22.2919393917       45.5101226906      -12.0598602717  MEMB      242             0.0000000000
     28564       242  POPC      H4S            23.6984012494       46.1429157586      -12.8774534747  MEMB      242             0.0000000000
     28565       242  POPC      C25            23.9793777025       44.1986490693      -11.8117928661  MEMB      242             0.0000000000
     28566       242  POPC      H5R            24.8360312210       43.8780920076      -12.4424346897  MEMB      242             0.0000000000
     28567       242  POPC      H5S            23.3553614225       43.3354592913      -11.4958370328  MEMB      242             0.0000000000
     28568       242  POPC      C26            24.3879484690       44.7837778860      -10.4709355096  MEMB      242             0.0000000000
     28569       242  POPC      H6R            24.7572660712       45.8047889232      -10.7064389425  MEMB      242             0.0000000000
     28570       242  POPC      H6S            25.2789083051       44.2621699679      -10.0605248486  MEMB      242             0.0000000000
     28571       242  POPC      C27            23.3100051115       44.7486355965       -9.3996255785  MEMB      242             0.0000000000
     28572       242  POPC      H7R            23.2410038898       43.6522526939       -9.2337812224  MEMB      242             0.0000000000
     28573       242  POPC      H7S            22.3307759525       45.1365669166       -9.7530947404  MEMB      242             0.0000000000
     28574       242  POPC      C28            23.6284417726       45.5742919615       -8.1714639481  MEMB      242             0.0000000000
     28575       242  POPC      H8R            22.6105166128       45.9532932060       -7.9379968887  MEMB      242             0.0000000000
     28576       242  POPC      H8S            24.2221921070       46.4767846134       -8.4308653373  MEMB      242             0.0000000000
     28577       242  POPC      C29            24.4000543734       44.8842323160       -7.0973524861  MEMB      242             0.0000000000
     28578       242  POPC      H91            25.4536801736       45.1644066555       -6.9511504211  MEMB      242             0.0000000000
     28579       242  POPC      C210           23.9109871826       44.0520941043       -6.1782592428  MEMB      242             0.0000000000
     28580       242  POPC      H101           24.5253035562       43.7105831333       -5.3320996225  MEMB      242             0.0000000000
     28581       242  POPC      C211           22.4746240114       43.6161205110       -6.0248464667  MEMB      242             0.0000000000
     28582       242  POPC      H11R           22.3272451608       42.8162568426       -5.2679986269  MEMB      242             0.0000000000
     28583       242  POPC      H11S           22.1394765296       43.2069968742       -7.0018905713  MEMB      242             0.0000000000
     28584       242  POPC      C212           21.4591922813       44.7243291045       -5.5956995513  MEMB      242             0.0000000000
     28585       242  POPC      H12R           20.4635319403       44.2316445822       -5.5800932566  MEMB      242             0.0000000000
     28586       242  POPC      H12S           21.4795094186       45.4347000499       -6.4496799511  MEMB      242             0.0000000000
     28587       242  POPC      C213           21.7265025031       45.3279596169       -4.2551945633  MEMB      242             0.0000000000
     28588       242  POPC      H13R           21.1302420954       46.2629905510       -4.1880267587  MEMB      242             0.0000000000
     28589       242  POPC      H13S           22.7805425918       45.6750559166       -4.3085297722  MEMB      242             0.0000000000
     28590       242  POPC      C214           21.5148147198       44.4230914852       -2.9882957426  MEMB      242             0.0000000000
     28591       242  POPC      H14R           21.7645375412       45.0047851157       -2.0752835435  MEMB      242             0.0000000000
     28592       242  POPC      H14S           22.1014732405       43.4798155752       -3.0078655297  MEMB      242             0.0000000000
     28593       242  POPC      C215           19.9875823886       44.1187243562       -2.8086917312  MEMB      242             0.0000000000
     28594       242  POPC      H15R           19.5198779062       43.4499284356       -3.5625395183  MEMB      242             0.0000000000
     28595       242  POPC      H15S           19.5074930285       45.1170506642       -2.7239582094  MEMB      242             0.0000000000
     28596       242  POPC      C216           19.7970049682       43.3800383410       -1.4632388827  MEMB      242             0.0000000000
     28597       242  POPC      H16R           20.1739021141       44.1622021878       -0.7700648191  MEMB      242             0.0000000000
     28598       242  POPC      H16S           20.4234729361       42.4625454869       -1.4713379722  MEMB      242             0.0000000000
     28599       242  POPC      C217           18.3519984710       43.0661779837       -1.1743848864  MEMB      242             0.0000000000
     28600       242  POPC      H17R           18.0979279611       42.2358299548       -1.8674157027  MEMB      242             0.0000000000
     28601       242  POPC      H17S           17.7188282919       43.9674131693       -1.3199587865  MEMB      242             0.0000000000
     28602       242  POPC      C218           18.1061863604       42.5186932278        0.2588136318  MEMB      242             0.0000000000
     28603       242  POPC      H18R           18.6724713927       41.5664061294        0.3412238228  MEMB      242             0.0000000000
     28604       242  POPC      H18S           17.0206581690       42.2863927588        0.2142464947  MEMB      242             0.0000000000
     28605       242  POPC      H18T           18.3715836951       43.2933924695        1.0096307813  MEMB      242             0.0000000000
     28606       242  POPC      C33            19.2087609914       41.9366556500      -11.6255685397  MEMB      242             0.0000000000
     28607       242  POPC      H3X            18.1607603654       42.2985083741      -11.5543057790  MEMB      242             0.0000000000
     28608       242  POPC      H3Y            19.8829426133       42.7808391174      -11.3664280865  MEMB      242             0.0000000000
     28609       242  POPC      C34            19.5928071418       40.9592448366      -10.5269552534  MEMB      242             0.0000000000
     28610       242  POPC      H4X            19.6029280921       39.9599415816      -11.0123538668  MEMB      242             0.0000000000
     28611       242  POPC      H4Y            18.7039586816       41.0075769757       -9.8621747199  MEMB      242             0.0000000000
     28612       242  POPC      C35            20.8691100984       41.3089565449       -9.8415326754  MEMB      242             0.0000000000
     28613       242  POPC      H5X            20.7159075142       42.1430372825       -9.1237865210  MEMB      242             0.0000000000
     28614       242  POPC      H5Y            21.5600741800       41.7560481041      -10.5878563100  MEMB      242             0.0000000000
     28615       242  POPC      C36            21.4817418771       40.0725960388       -9.2158836670  MEMB      242             0.0000000000
     28616       242  POPC      H6X            21.5436212996       39.2915929416      -10.0036179780  MEMB      242             0.0000000000
     28617       242  POPC      H6Y            20.8572344496       39.7010341321       -8.3754945622  MEMB      242             0.0000000000
     28618       242  POPC      C37            22.9552599174       40.3831306463       -8.6535535355  MEMB      242             0.0000000000
     28619       242  POPC      H7X            22.7518769567       41.2025682519       -7.9314184311  MEMB      242             0.0000000000
     28620       242  POPC      H7Y            23.5000623684       40.7978831042       -9.5284768755  MEMB      242             0.0000000000
     28621       242  POPC      C38            23.6228821377       39.1806242698       -7.9886594791  MEMB      242             0.0000000000
     28622       242  POPC      H8X            24.7257255951       39.3146548432       -7.9790084761  MEMB      242             0.0000000000
     28623       242  POPC      H8Y            23.4524617084       38.3358011805       -8.6897666602  MEMB      242             0.0000000000
     28624       242  POPC      C39            22.9018335739       38.7526128840       -6.6954291355  MEMB      242             0.0000000000
     28625       242  POPC      H9X            22.8877302793       37.6579969944       -6.5058547297  MEMB      242             0.0000000000
     28626       242  POPC      H9Y            21.8556401664       39.1255275381       -6.6683157211  MEMB      242             0.0000000000
     28627       242  POPC      C310           23.5912966913       39.5158911677       -5.4514064632  MEMB      242             0.0000000000
     28628       242  POPC      H10X           23.5720542093       40.6207681415       -5.5662860790  MEMB      242             0.0000000000
     28629       242  POPC      H10Y           24.6369660654       39.1503524692       -5.5367186178  MEMB      242             0.0000000000
     28630       242  POPC      C311           22.9559318496       39.2751817055       -4.0949551766  MEMB      242             0.0000000000
     28631       242  POPC      H11X           22.2999743749       38.3800029200       -4.0430342995  MEMB      242             0.0000000000
     28632       242  POPC      H11Y           22.4477825076       40.2491318661       -3.9290463315  MEMB      242             0.0000000000
     28633       242  POPC      C312           23.8967111481       39.1455695281       -2.9140853615  MEMB      242             0.0000000000
     28634       242  POPC      H12X           24.7263829660       38.4095043481       -2.9786884431  MEMB      242             0.0000000000
     28635       242  POPC      H12Y           23.1988523411       38.8955750629       -2.0865491430  MEMB      242             0.0000000000
     28636       242  POPC      C313           24.6065669540       40.4553359576       -2.7156203804  MEMB      242             0.0000000000
     28637       242  POPC      H13X           23.8662176102       41.2016348632       -2.3561175919  MEMB      242             0.0000000000
     28638       242  POPC      H13Y           25.0804767207       40.7642975215       -3.6717976200  MEMB      242             0.0000000000
     28639       242  POPC      C314           25.7385618118       40.2809843257       -1.6696862859  MEMB      242             0.0000000000
     28640       242  POPC      H14X           26.5407674637       39.7316385429       -2.2072801307  MEMB      242             0.0000000000
     28641       242  POPC      H14Y           25.3276823123       39.7252107373       -0.7998507199  MEMB      242             0.0000000000
     28642       242  POPC      C315           26.3119573533       41.6499803453       -1.2033302780  MEMB      242             0.0000000000
     28643       242  POPC      H15X           25.5555275097       42.1492858661       -0.5608114231  MEMB      242             0.0000000000
     28644       242  POPC      H15Y           26.6341050996       42.2900716755       -2.0523424402  MEMB      242             0.0000000000
     28645       242  POPC      C316           27.5025249435       41.4882279177       -0.1607721134  MEMB      242             0.0000000000
     28646       242  POPC      H16X           27.0743877098       40.9019402871        0.6802322591  MEMB      242             0.0000000000
     28647       242  POPC      H16Y           27.8692246796       42.4551572854        0.2453074375  MEMB      242             0.0000000000
     28648       242  POPC      H16Z           28.3013964939       40.8432845131       -0.5852395995  MEMB      242             0.0000000000
     28649       243  POPC      N              43.3125847233       22.3664930552      -19.3949772359  MEMB      243             0.0000000000
     28650       243  POPC      C12            44.6121965967       21.8646777815      -19.9113787758  MEMB      243             0.0000000000
     28651       243  POPC      H12A           45.3558785999       22.1207990526      -19.1712848709  MEMB      243             0.0000000000
     28652       243  POPC      H12B           45.0062447550       22.4232302745      -20.7475279926  MEMB      243             0.0000000000
     28653       243  POPC      C13            43.2273913292       23.8778010500      -19.4296363492  MEMB      243             0.0000000000
     28654       243  POPC      H13A           43.0700925887       24.1661547323      -20.4584752218  MEMB      243             0.0000000000
     28655       243  POPC      H13B           42.4181052117       24.0147924176      -18.7277179165  MEMB      243             0.0000000000
     28656       243  POPC      H13C           44.1217684931       24.2998135541      -18.9955914066  MEMB      243             0.0000000000
     28657       243  POPC      C14            42.1168737629       21.8307340085      -20.2196530124  MEMB      243             0.0000000000
     28658       243  POPC      H14A           42.1967679020       20.7700098787      -20.0328875323  MEMB      243             0.0000000000
     28659       243  POPC      H14B           41.1871030178       22.2682660578      -19.8872500639  MEMB      243             0.0000000000
     28660       243  POPC      H14C           42.2741637454       22.0334062679      -21.2687402567  MEMB      243             0.0000000000
     28661       243  POPC      C15            43.1562039061       22.0133600763      -17.8980068951  MEMB      243             0.0000000000
     28662       243  POPC      H15A           43.9610820379       22.5451083226      -17.4123990177  MEMB      243             0.0000000000
     28663       243  POPC      H15B           43.1615214181       20.9825941214      -17.5756822291  MEMB      243             0.0000000000
     28664       243  POPC      H15C           42.2593225942       22.4638686249      -17.4992007740  MEMB      243             0.0000000000
     28665       243  POPC      C11            44.8163372994       20.4067114280      -20.3946610344  MEMB      243             0.0000000000
     28666       243  POPC      H11A           45.8663157703       20.3488602659      -20.7531572862  MEMB      243             0.0000000000
     28667       243  POPC      H11B           44.2100306326       20.1906959332      -21.3002275339  MEMB      243             0.0000000000
     28668       243  POPC      P              45.3963177309       18.7847402148      -18.3441939510  MEMB      243             0.0000000000
     28669       243  POPC      O13            46.4351120734       18.1226471856      -19.1301499336  MEMB      243             0.0000000000
     28670       243  POPC      O14            44.6165363752       18.0226996214      -17.4002550609  MEMB      243             0.0000000000
     28671       243  POPC      O12            44.4437132414       19.4978992732      -19.3262954522  MEMB      243             0.0000000000
     28672       243  POPC      O11            46.0529017825       19.9526875761      -17.5507923024  MEMB      243             0.0000000000
     28673       243  POPC      C1             47.2614754553       19.5691436280      -16.8195754207  MEMB      243             0.0000000000
     28674       243  POPC      HA             48.1937840549       19.9220713940      -17.3100481010  MEMB      243             0.0000000000
     28675       243  POPC      HB             47.4192857897       18.4776631975      -16.6850862217  MEMB      243             0.0000000000
     28676       243  POPC      C2             47.2099111040       20.1411638972      -15.3606315727  MEMB      243             0.0000000000
     28677       243  POPC      HS             48.0766890428       19.8099432609      -14.7496409037  MEMB      243             0.0000000000
     28678       243  POPC      O21            45.9348957282       19.8009559832      -14.6928584356  MEMB      243             0.0000000000
     28679       243  POPC      C21            46.0364837915       18.5364483167      -14.1910888891  MEMB      243             0.0000000000
     28680       243  POPC      O22            46.9550230246       17.7456216051      -14.3845640252  MEMB      243             0.0000000000
     28681       243  POPC      C22            44.6829781186       18.1586747668      -13.6087653750  MEMB      243             0.0000000000
     28682       243  POPC      H2R            43.9566620983       18.0184678664      -14.4376973153  MEMB      243             0.0000000000
     28683       243  POPC      H2S            44.4101333952       18.9900768913      -12.9241869456  MEMB      243             0.0000000000
     28684       243  POPC      C3             47.3713268583       21.7282768576      -15.4512269998  MEMB      243             0.0000000000
     28685       243  POPC      HX             46.7035761911       22.1262157978      -16.2449994455  MEMB      243             0.0000000000
     28686       243  POPC      HY             48.3559446916       21.9524245383      -15.9144835306  MEMB      243             0.0000000000
     28687       243  POPC      O31            47.5014087151       22.3176441448      -14.1613509299  MEMB      243             0.0000000000
     28688       243  POPC      C31            46.4481272312       22.9360951617      -13.7134051944  MEMB      243             0.0000000000
     28689       243  POPC      O32            45.3588705238       22.9593090789      -14.2578484798  MEMB      243             0.0000000000
     28690       243  POPC      C32            46.7527201437       23.8564546436      -12.5781073889  MEMB      243             0.0000000000
     28691       243  POPC      H2X            45.9827580526       24.6573753170      -12.5757798676  MEMB      243             0.0000000000
     28692       243  POPC      H2Y            47.6641185423       24.4554237400      -12.7900270338  MEMB      243             0.0000000000
     28693       243  POPC      C23            44.8464343713       16.8460549588      -12.8363589414  MEMB      243             0.0000000000
     28694       243  POPC      H3R            45.4292537622       16.9662053273      -11.8981656105  MEMB      243             0.0000000000
     28695       243  POPC      H3S            45.2922443533       16.0688122295      -13.4932215655  MEMB      243             0.0000000000
     28696       243  POPC      C24            43.5489822331       16.2436857422      -12.3996845236  MEMB      243             0.0000000000
     28697       243  POPC      H4R            43.7594865827       15.3425326836      -11.7849228243  MEMB      243             0.0000000000
     28698       243  POPC      H4S            43.0250462263       15.8749002866      -13.3073243895  MEMB      243             0.0000000000
     28699       243  POPC      C25            42.5195035330       17.1199838818      -11.5926076287  MEMB      243             0.0000000000
     28700       243  POPC      H5R            41.4815939109       16.8713069305      -11.9011925695  MEMB      243             0.0000000000
     28701       243  POPC      H5S            42.6549357271       18.1556841098      -11.9711627990  MEMB      243             0.0000000000
     28702       243  POPC      C26            42.4384101329       16.9444673328      -10.0645035162  MEMB      243             0.0000000000
     28703       243  POPC      H6R            41.9545999827       15.9951331302       -9.7498387660  MEMB      243             0.0000000000
     28704       243  POPC      H6S            41.7583779374       17.7175262307       -9.6470626992  MEMB      243             0.0000000000
     28705       243  POPC      C27            43.8709389969       17.1628664721       -9.4854058465  MEMB      243             0.0000000000
     28706       243  POPC      H7R            44.3158775153       18.0408920343      -10.0005970107  MEMB      243             0.0000000000
     28707       243  POPC      H7S            44.6277197770       16.3812440956       -9.7105064728  MEMB      243             0.0000000000
     28708       243  POPC      C28            44.0017358603       17.3662856720       -8.0277690815  MEMB      243             0.0000000000
     28709       243  POPC      H8R            43.6802325328       16.4574546809       -7.4755167850  MEMB      243             0.0000000000
     28710       243  POPC      H8S            43.1497116749       18.0332739113       -7.7757718611  MEMB      243             0.0000000000
     28711       243  POPC      C29            45.3583688528       17.8791703881       -7.5663832136  MEMB      243             0.0000000000
     28712       243  POPC      H91            45.8470807128       18.6078676172       -8.2298303946  MEMB      243             0.0000000000
     28713       243  POPC      C210           45.9166392380       17.4225613369       -6.4450632701  MEMB      243             0.0000000000
     28714       243  POPC      H101           46.8937981255       17.7818828731       -6.0900289462  MEMB      243             0.0000000000
     28715       243  POPC      C211           45.3909351421       16.3445959264       -5.4725993075  MEMB      243             0.0000000000
     28716       243  POPC      H11R           45.8115171435       15.3509872693       -5.7375028942  MEMB      243             0.0000000000
     28717       243  POPC      H11S           44.2858603099       16.3375231575       -5.5869703012  MEMB      243             0.0000000000
     28718       243  POPC      C212           45.6079254854       16.7030422617       -4.0180070443  MEMB      243             0.0000000000
     28719       243  POPC      H12R           45.4951901873       17.7759216458       -3.7524100620  MEMB      243             0.0000000000
     28720       243  POPC      H12S           46.6819769172       16.5024944856       -3.8167225617  MEMB      243             0.0000000000
     28721       243  POPC      C213           44.7219777345       15.8141779253       -3.1854697841  MEMB      243             0.0000000000
     28722       243  POPC      H13R           44.8510070010       14.7541314727       -3.4920222823  MEMB      243             0.0000000000
     28723       243  POPC      H13S           43.6538302062       16.1057152303       -3.2770540043  MEMB      243             0.0000000000
     28724       243  POPC      C214           45.0802888296       15.8547278323       -1.6664876669  MEMB      243             0.0000000000
     28725       243  POPC      H14R           45.9839200864       15.2211549813       -1.5385937887  MEMB      243             0.0000000000
     28726       243  POPC      H14S           44.3015044447       15.2554843673       -1.1481027924  MEMB      243             0.0000000000
     28727       243  POPC      C215           45.3009898323       17.1926514321       -1.0450994446  MEMB      243             0.0000000000
     28728       243  POPC      H15R           44.8631127219       17.0597828604       -0.0327091060  MEMB      243             0.0000000000
     28729       243  POPC      H15S           44.7581399159       17.9918443968       -1.5936654834  MEMB      243             0.0000000000
     28730       243  POPC      C216           46.8150037195       17.6380609516       -0.9494121064  MEMB      243             0.0000000000
     28731       243  POPC      H16R           47.0631747016       17.9637297832       -1.9822088976  MEMB      243             0.0000000000
     28732       243  POPC      H16S           47.4480845859       16.8009931468       -0.5849296221  MEMB      243             0.0000000000
     28733       243  POPC      C217           47.0145932029       18.7057512594        0.1152468171  MEMB      243             0.0000000000
     28734       243  POPC      H17R           46.9250274274       18.1939501360        1.0972628386  MEMB      243             0.0000000000
     28735       243  POPC      H17S           46.2294191039       19.4866249161        0.2050183401  MEMB      243             0.0000000000
     28736       243  POPC      C218           48.3353001852       19.4731973762        0.1887680411  MEMB      243             0.0000000000
     28737       243  POPC      H18R           48.2961787938       20.3770940437        0.8335636378  MEMB      243             0.0000000000
     28738       243  POPC      H18S           48.4681667092       19.8365772678       -0.8526830158  MEMB      243             0.0000000000
     28739       243  POPC      H18T           49.1355478608       18.7730629334        0.5108491219  MEMB      243             0.0000000000
     28740       243  POPC      C33            46.7147723121       23.1414855168      -11.2129611635  MEMB      243             0.0000000000
     28741       243  POPC      H3X            47.6702258074       22.6168834072      -10.9979672477  MEMB      243             0.0000000000
     28742       243  POPC      H3Y            45.9303236372       22.3547906603      -11.2214756360  MEMB      243             0.0000000000
     28743       243  POPC      C34            46.5073247168       24.1480888261      -10.0581637974  MEMB      243             0.0000000000
     28744       243  POPC      H4X            45.6487385282       24.8337027948      -10.2227371228  MEMB      243             0.0000000000
     28745       243  POPC      H4Y            47.3757656299       24.8196122699       -9.8873204938  MEMB      243             0.0000000000
     28746       243  POPC      C35            46.2886910363       23.3788210645       -8.6936103462  MEMB      243             0.0000000000
     28747       243  POPC      H5X            46.4454723175       24.2762692523       -8.0577431457  MEMB      243             0.0000000000
     28748       243  POPC      H5Y            47.1282296528       22.6666335511       -8.5443296255  MEMB      243             0.0000000000
     28749       243  POPC      C36            44.8628338509       22.8307666122       -8.4280194268  MEMB      243             0.0000000000
     28750       243  POPC      H6X            44.5563971429       22.0871201622       -9.1944445491  MEMB      243             0.0000000000
     28751       243  POPC      H6Y            44.0801569249       23.6159347487       -8.5004696962  MEMB      243             0.0000000000
     28752       243  POPC      C37            44.6240693543       22.2869316840       -6.9780371980  MEMB      243             0.0000000000
     28753       243  POPC      H7X            43.7652902004       21.5937113703       -7.1055716923  MEMB      243             0.0000000000
     28754       243  POPC      H7Y            44.3525464249       23.2000671126       -6.4063905627  MEMB      243             0.0000000000
     28755       243  POPC      C38            45.8241740418       21.7005973810       -6.3358909352  MEMB      243             0.0000000000
     28756       243  POPC      H8X            46.6781899739       22.4052566061       -6.2440575094  MEMB      243             0.0000000000
     28757       243  POPC      H8Y            46.1689700846       20.8706823211       -6.9890970237  MEMB      243             0.0000000000
     28758       243  POPC      C39            45.7275154152       20.9510943824       -4.9576356630  MEMB      243             0.0000000000
     28759       243  POPC      H9X            46.7494400991       20.5831417582       -4.7239654039  MEMB      243             0.0000000000
     28760       243  POPC      H9Y            45.0649703554       20.0884902082       -5.1840627273  MEMB      243             0.0000000000
     28761       243  POPC      C310           45.0730118519       21.8059913263       -3.8281050326  MEMB      243             0.0000000000
     28762       243  POPC      H10X           44.1514965366       22.2491044464       -4.2625948451  MEMB      243             0.0000000000
     28763       243  POPC      H10Y           45.7331737891       22.6685883806       -3.5947956025  MEMB      243             0.0000000000
     28764       243  POPC      C311           44.7114616951       21.0218670038       -2.5533872534  MEMB      243             0.0000000000
     28765       243  POPC      H11X           45.6346202477       20.9645327160       -1.9379094102  MEMB      243             0.0000000000
     28766       243  POPC      H11Y           44.4569293700       19.9447059769       -2.6496077405  MEMB      243             0.0000000000
     28767       243  POPC      C312           43.6857082308       21.6490807363       -1.5773740751  MEMB      243             0.0000000000
     28768       243  POPC      H12X           43.7734030800       21.0148462848       -0.6694232862  MEMB      243             0.0000000000
     28769       243  POPC      H12Y           42.7541822636       21.4149688114       -2.1357395196  MEMB      243             0.0000000000
     28770       243  POPC      C313           43.7985376348       23.1743294598       -1.3209613513  MEMB      243             0.0000000000
     28771       243  POPC      H13X           42.9444583824       23.4641026205       -0.6721927703  MEMB      243             0.0000000000
     28772       243  POPC      H13Y           43.8124023496       23.7240937905       -2.2863049466  MEMB      243             0.0000000000
     28773       243  POPC      C314           45.0784211020       23.5317115235       -0.4396244481  MEMB      243             0.0000000000
     28774       243  POPC      H14X           45.0221539503       24.6134317203       -0.1925690974  MEMB      243             0.0000000000
     28775       243  POPC      H14Y           45.9072662122       23.2907457644       -1.1391055754  MEMB      243             0.0000000000
     28776       243  POPC      C315           45.3413912632       22.6514138438        0.7598653326  MEMB      243             0.0000000000
     28777       243  POPC      H15X           46.1629329971       23.0976526308        1.3600820552  MEMB      243             0.0000000000
     28778       243  POPC      H15Y           45.6796238783       21.6188109801        0.5282367232  MEMB      243             0.0000000000
     28779       243  POPC      C316           44.2593345674       22.6123607458        1.8514712757  MEMB      243             0.0000000000
     28780       243  POPC      H16X           44.6283347205       22.0271099018        2.7207469337  MEMB      243             0.0000000000
     28781       243  POPC      H16Y           43.2976764371       22.2566237141        1.4237031267  MEMB      243             0.0000000000
     28782       243  POPC      H16Z           44.0399178744       23.6446118185        2.1987966677  MEMB      243             0.0000000000
     28783       244  POPC      N              31.1982413739      -39.0442371679      -20.1644955319  MEMB      244             0.0000000000
     28784       244  POPC      C12            31.1403596262      -38.5968219721      -18.6796256446  MEMB      244             0.0000000000
     28785       244  POPC      H12A           31.4904922752      -39.4776803852      -18.1620393068  MEMB      244             0.0000000000
     28786       244  POPC      H12B           30.1538763219      -38.2067450915      -18.4769169631  MEMB      244             0.0000000000
     28787       244  POPC      C13            32.5906888823      -39.6174782658      -20.5029495803  MEMB      244             0.0000000000
     28788       244  POPC      H13A           32.5066655078      -39.9333124115      -21.5323128476  MEMB      244             0.0000000000
     28789       244  POPC      H13B           33.3391358291      -38.8502427372      -20.3703719428  MEMB      244             0.0000000000
     28790       244  POPC      H13C           32.8706684734      -40.3563972931      -19.7667361946  MEMB      244             0.0000000000
     28791       244  POPC      C14            30.2672326487      -40.1537955862      -20.3459544758  MEMB      244             0.0000000000
     28792       244  POPC      H14A           29.2557061227      -39.9703696788      -20.0149419381  MEMB      244             0.0000000000
     28793       244  POPC      H14B           30.1346265704      -40.3176153474      -21.4051894218  MEMB      244             0.0000000000
     28794       244  POPC      H14C           30.6729831959      -41.0388985440      -19.8786652155  MEMB      244             0.0000000000
     28795       244  POPC      C15            30.8603062421      -37.9773768566      -21.0996458773  MEMB      244             0.0000000000
     28796       244  POPC      H15A           31.7000793049      -37.3014746053      -21.0337878366  MEMB      244             0.0000000000
     28797       244  POPC      H15B           29.8845207615      -37.5930425777      -20.8417123092  MEMB      244             0.0000000000
     28798       244  POPC      H15C           30.8908681547      -38.2034647394      -22.1552738175  MEMB      244             0.0000000000
     28799       244  POPC      C11            32.0925121994      -37.4561366428      -18.1612134408  MEMB      244             0.0000000000
     28800       244  POPC      H11A           32.0143076069      -37.4334003156      -17.0532025558  MEMB      244             0.0000000000
     28801       244  POPC      H11B           31.6875800861      -36.4802731849      -18.5047849862  MEMB      244             0.0000000000
     28802       244  POPC      P              34.5115917036      -36.7011274110      -18.0058512277  MEMB      244             0.0000000000
     28803       244  POPC      O13            34.1794098067      -35.9616773996      -16.7224015214  MEMB      244             0.0000000000
     28804       244  POPC      O14            34.7617486698      -35.8436126255      -19.1903375391  MEMB      244             0.0000000000
     28805       244  POPC      O12            33.4130844084      -37.7215023166      -18.4709510412  MEMB      244             0.0000000000
     28806       244  POPC      O11            35.8156112425      -37.6102487530      -17.6565740674  MEMB      244             0.0000000000
     28807       244  POPC      C1             36.1279005334      -38.9790767796      -18.0464250039  MEMB      244             0.0000000000
     28808       244  POPC      HA             37.1730581341      -39.0541916726      -18.4156457230  MEMB      244             0.0000000000
     28809       244  POPC      HB             35.4582240213      -39.3746005404      -18.8397820683  MEMB      244             0.0000000000
     28810       244  POPC      C2             35.9848761829      -39.9183244828      -16.7656617849  MEMB      244             0.0000000000
     28811       244  POPC      HS             36.4511237129      -40.8753294909      -17.0835852502  MEMB      244             0.0000000000
     28812       244  POPC      O21            34.5672773117      -40.0667364794      -16.5381456430  MEMB      244             0.0000000000
     28813       244  POPC      C21            34.1061758832      -41.2883408891      -16.1473546625  MEMB      244             0.0000000000
     28814       244  POPC      O22            34.7603355653      -42.1935440461      -15.7306735425  MEMB      244             0.0000000000
     28815       244  POPC      C22            32.5840028077      -41.0864876713      -16.3676129264  MEMB      244             0.0000000000
     28816       244  POPC      H2R            32.4303700661      -41.0541386712      -17.4674634711  MEMB      244             0.0000000000
     28817       244  POPC      H2S            32.2602790246      -40.0932012306      -15.9895839082  MEMB      244             0.0000000000
     28818       244  POPC      C3             36.6914614227      -39.3859959293      -15.4909771427  MEMB      244             0.0000000000
     28819       244  POPC      HX             37.7473898021      -39.1747724268      -15.7643278739  MEMB      244             0.0000000000
     28820       244  POPC      HY             36.8680724465      -40.1900442492      -14.7448969161  MEMB      244             0.0000000000
     28821       244  POPC      O31            35.9434843346      -38.3551013273      -14.9207381708  MEMB      244             0.0000000000
     28822       244  POPC      C31            35.3772648938      -38.5174402751      -13.6737537272  MEMB      244             0.0000000000
     28823       244  POPC      O32            35.6577536369      -39.4287765160      -12.9143391329  MEMB      244             0.0000000000
     28824       244  POPC      C32            34.3056585894      -37.4924483242      -13.3300052729  MEMB      244             0.0000000000
     28825       244  POPC      H2X            33.6074156521      -37.8703521050      -12.5528525506  MEMB      244             0.0000000000
     28826       244  POPC      H2Y            33.7102428849      -37.2125273269      -14.2252402871  MEMB      244             0.0000000000
     28827       244  POPC      C23            31.6781350026      -42.2980301040      -16.0074398266  MEMB      244             0.0000000000
     28828       244  POPC      H3R            31.9243983218      -43.2454585971      -16.5328491004  MEMB      244             0.0000000000
     28829       244  POPC      H3S            30.7320144234      -41.9198954404      -16.4503743780  MEMB      244             0.0000000000
     28830       244  POPC      C24            31.5948098252      -42.5216664761      -14.4768548771  MEMB      244             0.0000000000
     28831       244  POPC      H4R            32.4088127460      -43.1538812175      -14.0620962710  MEMB      244             0.0000000000
     28832       244  POPC      H4S            30.6574542915      -43.1179607463      -14.4877701917  MEMB      244             0.0000000000
     28833       244  POPC      C25            31.2163278785      -41.3452785853      -13.5523644931  MEMB      244             0.0000000000
     28834       244  POPC      H5R            30.4249448698      -40.7967546591      -14.1065804920  MEMB      244             0.0000000000
     28835       244  POPC      H5S            32.0977890127      -40.6886724495      -13.3904515221  MEMB      244             0.0000000000
     28836       244  POPC      C26            30.9128584519      -41.8618076220      -12.1022716315  MEMB      244             0.0000000000
     28837       244  POPC      H6R            31.7862156168      -42.3455745196      -11.6148927257  MEMB      244             0.0000000000
     28838       244  POPC      H6S            30.1644245192      -42.6740470896      -12.2224178656  MEMB      244             0.0000000000
     28839       244  POPC      C27            30.4358729335      -40.8638473146      -11.0778791080  MEMB      244             0.0000000000
     28840       244  POPC      H7R            30.2384440465      -41.5064623387      -10.1933516806  MEMB      244             0.0000000000
     28841       244  POPC      H7S            29.5268845755      -40.3318174867      -11.4314402926  MEMB      244             0.0000000000
     28842       244  POPC      C28            31.4268794778      -39.7441350283      -10.8307280034  MEMB      244             0.0000000000
     28843       244  POPC      H8R            31.4544035782      -39.0156025947      -11.6690617129  MEMB      244             0.0000000000
     28844       244  POPC      H8S            32.4028858238      -40.2745881055      -10.8119675888  MEMB      244             0.0000000000
     28845       244  POPC      C29            31.1374033254      -38.8964983140       -9.6462344826  MEMB      244             0.0000000000
     28846       244  POPC      H91            30.3905559904      -38.0931512000       -9.7290131459  MEMB      244             0.0000000000
     28847       244  POPC      C210           31.6969071244      -39.1271804785       -8.4487970693  MEMB      244             0.0000000000
     28848       244  POPC      H101           31.2735642960      -38.5642335722       -7.6038880717  MEMB      244             0.0000000000
     28849       244  POPC      C211           32.5986742701      -40.1898920191       -8.0743458883  MEMB      244             0.0000000000
     28850       244  POPC      H11R           32.2083297466      -41.1932010656       -8.3487965159  MEMB      244             0.0000000000
     28851       244  POPC      H11S           32.5733923372      -40.2137631621       -6.9638907152  MEMB      244             0.0000000000
     28852       244  POPC      C212           34.0976210445      -39.9916106244       -8.3157495741  MEMB      244             0.0000000000
     28853       244  POPC      H12R           34.5103375575      -38.9823312716       -8.1028144194  MEMB      244             0.0000000000
     28854       244  POPC      H12S           34.0168111843      -40.1282333068       -9.4153513431  MEMB      244             0.0000000000
     28855       244  POPC      C213           35.0413518011      -41.0371586832       -7.7217554005  MEMB      244             0.0000000000
     28856       244  POPC      H13R           36.0603130540      -40.9091272660       -8.1456031524  MEMB      244             0.0000000000
     28857       244  POPC      H13S           34.8183490932      -42.0558994280       -8.1048456282  MEMB      244             0.0000000000
     28858       244  POPC      C214           35.0755914041      -41.0091836198       -6.1706855268  MEMB      244             0.0000000000
     28859       244  POPC      H14R           34.1460500060      -41.3898957822       -5.6959938639  MEMB      244             0.0000000000
     28860       244  POPC      H14S           35.3689918005      -39.9768531254       -5.8834032400  MEMB      244             0.0000000000
     28861       244  POPC      C215           36.1514033304      -41.8594297468       -5.5142969113  MEMB      244             0.0000000000
     28862       244  POPC      H15R           37.1240807981      -41.3473747924       -5.3529913228  MEMB      244             0.0000000000
     28863       244  POPC      H15S           36.4538006833      -42.7177264971       -6.1516380441  MEMB      244             0.0000000000
     28864       244  POPC      C216           35.6792375439      -42.6398979710       -4.1935828981  MEMB      244             0.0000000000
     28865       244  POPC      H16R           36.3865072101      -43.4838701683       -4.0459261498  MEMB      244             0.0000000000
     28866       244  POPC      H16S           34.6029785922      -42.9008073216       -4.2825437869  MEMB      244             0.0000000000
     28867       244  POPC      C217           35.6747362781      -41.7128587900       -2.9204207839  MEMB      244             0.0000000000
     28868       244  POPC      H17R           35.0122554357      -40.8454482260       -3.1278798005  MEMB      244             0.0000000000
     28869       244  POPC      H17S           36.7064665047      -41.3858549778       -2.6695798427  MEMB      244             0.0000000000
     28870       244  POPC      C218           35.0198135185      -42.2609677798       -1.5991215615  MEMB      244             0.0000000000
     28871       244  POPC      H18R           35.4340377871      -43.2634187802       -1.3586411415  MEMB      244             0.0000000000
     28872       244  POPC      H18S           33.9350644117      -42.4391828070       -1.7599920550  MEMB      244             0.0000000000
     28873       244  POPC      H18T           35.1782739049      -41.6528687653       -0.6829188160  MEMB      244             0.0000000000
     28874       244  POPC      C33            34.9652548197      -36.2383534087      -12.8494919242  MEMB      244             0.0000000000
     28875       244  POPC      H3X            35.6467042731      -35.8991215722      -13.6587317336  MEMB      244             0.0000000000
     28876       244  POPC      H3Y            35.4773711915      -36.4159223866      -11.8796838961  MEMB      244             0.0000000000
     28877       244  POPC      C34            33.9861915202      -34.9993624833      -12.7820375141  MEMB      244             0.0000000000
     28878       244  POPC      H4X            32.9523585434      -35.3585060344      -12.5909190641  MEMB      244             0.0000000000
     28879       244  POPC      H4Y            33.7967324707      -34.5806696526      -13.7935326331  MEMB      244             0.0000000000
     28880       244  POPC      C35            34.0424008270      -34.0092770822      -11.6701660317  MEMB      244             0.0000000000
     28881       244  POPC      H5X            33.1091953338      -33.4067862568      -11.6914701556  MEMB      244             0.0000000000
     28882       244  POPC      H5Y            34.9556521852      -33.3767556990      -11.6846510727  MEMB      244             0.0000000000
     28883       244  POPC      C36            33.9231755182      -34.5640190537      -10.2539444066  MEMB      244             0.0000000000
     28884       244  POPC      H6X            33.8337549096      -33.7199948586       -9.5370429108  MEMB      244             0.0000000000
     28885       244  POPC      H6Y            34.8349889071      -35.1393538299       -9.9857896241  MEMB      244             0.0000000000
     28886       244  POPC      C37            32.6453530520      -35.3331454802      -10.0300118067  MEMB      244             0.0000000000
     28887       244  POPC      H7X            32.8686412971      -36.3832331950      -10.3159824971  MEMB      244             0.0000000000
     28888       244  POPC      H7Y            31.8252337540      -34.9456201504      -10.6715330179  MEMB      244             0.0000000000
     28889       244  POPC      C38            32.1781527574      -35.2916579933       -8.5034485934  MEMB      244             0.0000000000
     28890       244  POPC      H8X            31.2160527888      -35.7842107274       -8.2463950210  MEMB      244             0.0000000000
     28891       244  POPC      H8Y            32.0289579719      -34.2019313510       -8.3467380323  MEMB      244             0.0000000000
     28892       244  POPC      C39            33.2224657180      -35.8281242886       -7.5165752096  MEMB      244             0.0000000000
     28893       244  POPC      H9X            34.2078479003      -35.3447619622       -7.6889233261  MEMB      244             0.0000000000
     28894       244  POPC      H9Y            33.4426464331      -36.8979125945       -7.7200324971  MEMB      244             0.0000000000
     28895       244  POPC      C310           32.8159411848      -35.7268193827       -6.0389025482  MEMB      244             0.0000000000
     28896       244  POPC      H10X           31.7240562129      -35.8283761729       -5.8605929249  MEMB      244             0.0000000000
     28897       244  POPC      H10Y           33.1282011284      -34.7475976872       -5.6170735167  MEMB      244             0.0000000000
     28898       244  POPC      C311           33.5272126597      -36.7815907480       -5.0960692428  MEMB      244             0.0000000000
     28899       244  POPC      H11X           34.6324664849      -36.6811882765       -5.1475902183  MEMB      244             0.0000000000
     28900       244  POPC      H11Y           33.2881536604      -37.7823239112       -5.5152410429  MEMB      244             0.0000000000
     28901       244  POPC      C312           32.9844212139      -36.7782658435       -3.6312307027  MEMB      244             0.0000000000
     28902       244  POPC      H12X           31.8886569631      -36.6204406483       -3.7245722384  MEMB      244             0.0000000000
     28903       244  POPC      H12Y           33.3531622696      -35.9750051456       -2.9580862591  MEMB      244             0.0000000000
     28904       244  POPC      C313           33.3354283621      -38.0870853036       -2.8255566622  MEMB      244             0.0000000000
     28905       244  POPC      H13X           34.4023784849      -38.3660459334       -2.9601659493  MEMB      244             0.0000000000
     28906       244  POPC      H13Y           32.7412444222      -38.8867107374       -3.3173546878  MEMB      244             0.0000000000
     28907       244  POPC      C314           32.9410911857      -38.0830454079       -1.3201755068  MEMB      244             0.0000000000
     28908       244  POPC      H14X           33.3011470302      -38.9577598729       -0.7374626420  MEMB      244             0.0000000000
     28909       244  POPC      H14Y           31.8363167249      -38.0369251412       -1.2121595296  MEMB      244             0.0000000000
     28910       244  POPC      C315           33.5544228778      -36.9026493590       -0.4937438036  MEMB      244             0.0000000000
     28911       244  POPC      H15X           33.5087992026      -37.0810981890        0.6018825057  MEMB      244             0.0000000000
     28912       244  POPC      H15Y           32.8986647893      -36.0251106554       -0.6787540493  MEMB      244             0.0000000000
     28913       244  POPC      C316           35.0038628267      -36.5272366314       -0.8054150395  MEMB      244             0.0000000000
     28914       244  POPC      H16X           35.5651611342      -37.4821548781       -0.8914171238  MEMB      244             0.0000000000
     28915       244  POPC      H16Y           35.4015357675      -35.9052334805        0.0248196333  MEMB      244             0.0000000000
     28916       244  POPC      H16Z           35.2062899894      -36.0534320281       -1.7897172829  MEMB      244             0.0000000000
     28917       245  POPC      N             -16.5259198838       49.2407683832      -20.2791653442  MEMB      245             0.0000000000
     28918       245  POPC      C12           -15.3703398558       49.4318916448      -19.3579145608  MEMB      245             0.0000000000
     28919       245  POPC      H12A          -15.4469864998       50.4907958400      -19.1598051668  MEMB      245             0.0000000000
     28920       245  POPC      H12B          -14.4099534275       49.3166945348      -19.8383180133  MEMB      245             0.0000000000
     28921       245  POPC      C13           -16.8203323943       50.5043759462      -21.0805835282  MEMB      245             0.0000000000
     28922       245  POPC      H13A          -15.9494395935       50.7552877033      -21.6679412310  MEMB      245             0.0000000000
     28923       245  POPC      H13B          -17.6511295627       50.2138259516      -21.7064880606  MEMB      245             0.0000000000
     28924       245  POPC      H13C          -16.9194914059       51.2838795523      -20.3396778851  MEMB      245             0.0000000000
     28925       245  POPC      C14           -16.3116436091       48.1049047331      -21.2635549032  MEMB      245             0.0000000000
     28926       245  POPC      H14A          -16.2067519332       47.2173275221      -20.6572510149  MEMB      245             0.0000000000
     28927       245  POPC      H14B          -17.1715084986       47.9107973412      -21.8875377924  MEMB      245             0.0000000000
     28928       245  POPC      H14C          -15.4505511738       48.3057514263      -21.8837006173  MEMB      245             0.0000000000
     28929       245  POPC      C15           -17.7831722588       48.9144029797      -19.6813129506  MEMB      245             0.0000000000
     28930       245  POPC      H15A          -18.1162617340       49.7123453018      -19.0342122820  MEMB      245             0.0000000000
     28931       245  POPC      H15B          -17.6200864369       47.9516517398      -19.2198878459  MEMB      245             0.0000000000
     28932       245  POPC      H15C          -18.5084694608       48.9906792704      -20.4778841762  MEMB      245             0.0000000000
     28933       245  POPC      C11           -15.2477232443       48.3980449494      -18.1391075382  MEMB      245             0.0000000000
     28934       245  POPC      H11A          -16.2073668715       48.5384661294      -17.5971786057  MEMB      245             0.0000000000
     28935       245  POPC      H11B          -14.3632498673       48.6796760473      -17.5286063894  MEMB      245             0.0000000000
     28936       245  POPC      P             -14.9805972350       45.7895361728      -17.8516548936  MEMB      245             0.0000000000
     28937       245  POPC      O13           -13.7457413090       46.0999516378      -17.0076622067  MEMB      245             0.0000000000
     28938       245  POPC      O14           -14.9411931552       44.6062634745      -18.7519475054  MEMB      245             0.0000000000
     28939       245  POPC      O12           -15.2533306375       47.0713599216      -18.6990627758  MEMB      245             0.0000000000
     28940       245  POPC      O11           -16.1494551443       45.7135331082      -16.8880337630  MEMB      245             0.0000000000
     28941       245  POPC      C1            -17.4194546771       45.1423802476      -17.3612445980  MEMB      245             0.0000000000
     28942       245  POPC      HA            -17.3966921390       44.0335391487      -17.2958666875  MEMB      245             0.0000000000
     28943       245  POPC      HB            -17.7362204740       45.3790827774      -18.3994895703  MEMB      245             0.0000000000
     28944       245  POPC      C2            -18.5188032726       45.3973490942      -16.2408496404  MEMB      245             0.0000000000
     28945       245  POPC      HS            -19.4709888131       44.9629881092      -16.6136687262  MEMB      245             0.0000000000
     28946       245  POPC      O21           -18.5848124035       46.8235773185      -15.9940709511  MEMB      245             0.0000000000
     28947       245  POPC      C21           -19.4759830856       47.4755574772      -16.8277108504  MEMB      245             0.0000000000
     28948       245  POPC      O22           -19.9462256949       46.9634675337      -17.8171261984  MEMB      245             0.0000000000
     28949       245  POPC      C22           -19.9069551601       48.7336999209      -16.1143182076  MEMB      245             0.0000000000
     28950       245  POPC      H2R           -20.2031493708       48.4842174670      -15.0729979115  MEMB      245             0.0000000000
     28951       245  POPC      H2S           -20.7103174010       49.1148705857      -16.7803805481  MEMB      245             0.0000000000
     28952       245  POPC      C3            -18.2177706263       44.7691468158      -14.8513994835  MEMB      245             0.0000000000
     28953       245  POPC      HX            -18.4542155071       43.6844039500      -14.8932047507  MEMB      245             0.0000000000
     28954       245  POPC      HY            -18.9686480851       45.2168870255      -14.1658101658  MEMB      245             0.0000000000
     28955       245  POPC      O31           -16.9035950286       45.1021949261      -14.3984892265  MEMB      245             0.0000000000
     28956       245  POPC      C31           -16.3967676570       44.5667007421      -13.1978827969  MEMB      245             0.0000000000
     28957       245  POPC      O32           -17.1597456573       44.0580307521      -12.3615133466  MEMB      245             0.0000000000
     28958       245  POPC      C32           -14.8942473942       44.8241202647      -13.0745171427  MEMB      245             0.0000000000
     28959       245  POPC      H2X           -14.6456419640       45.8944338473      -12.9103673291  MEMB      245             0.0000000000
     28960       245  POPC      H2Y           -14.4530935241       44.4745213750      -14.0323714945  MEMB      245             0.0000000000
     28961       245  POPC      C23           -18.7763370092       49.8350625972      -16.2296256937  MEMB      245             0.0000000000
     28962       245  POPC      H3R           -19.2646009410       50.6101550042      -16.8582363006  MEMB      245             0.0000000000
     28963       245  POPC      H3S           -17.8182831669       49.4872602118      -16.6717651808  MEMB      245             0.0000000000
     28964       245  POPC      C24           -18.4786361508       50.5214560052      -14.8916378336  MEMB      245             0.0000000000
     28965       245  POPC      H4R           -19.3111940928       50.8442705922      -14.2306089001  MEMB      245             0.0000000000
     28966       245  POPC      H4S           -17.9322742150       51.4069968106      -15.2810315140  MEMB      245             0.0000000000
     28967       245  POPC      C25           -17.5390898859       49.7165742196      -14.1466483218  MEMB      245             0.0000000000
     28968       245  POPC      H5R           -16.5935113599       49.5072556493      -14.6910638533  MEMB      245             0.0000000000
     28969       245  POPC      H5S           -17.9867668040       48.7151742478      -13.9702838376  MEMB      245             0.0000000000
     28970       245  POPC      C26           -17.0311878466       50.2229114748      -12.7890876900  MEMB      245             0.0000000000
     28971       245  POPC      H6R           -17.9686215961       50.4957644450      -12.2589084710  MEMB      245             0.0000000000
     28972       245  POPC      H6S           -16.5897905668       51.2198189727      -13.0027817590  MEMB      245             0.0000000000
     28973       245  POPC      C27           -15.9147317782       49.3021121816      -12.1809098734  MEMB      245             0.0000000000
     28974       245  POPC      H7R           -15.1082663623       49.1716382818      -12.9338449507  MEMB      245             0.0000000000
     28975       245  POPC      H7S           -16.3665000117       48.3010590994      -12.0132231287  MEMB      245             0.0000000000
     28976       245  POPC      C28           -15.1818410365       49.8049559172      -10.9971722146  MEMB      245             0.0000000000
     28977       245  POPC      H8R           -15.9035575771       50.1004741035      -10.2058975928  MEMB      245             0.0000000000
     28978       245  POPC      H8S           -14.6250380470       50.7172779193      -11.3004215055  MEMB      245             0.0000000000
     28979       245  POPC      C29           -14.2584887707       48.8469406151      -10.3128306276  MEMB      245             0.0000000000
     28980       245  POPC      H91           -13.4173674074       48.4912072276      -10.9259930972  MEMB      245             0.0000000000
     28981       245  POPC      C210          -14.2788614681       48.3321360567       -9.0753691753  MEMB      245             0.0000000000
     28982       245  POPC      H101          -13.4666451460       47.6239596125       -8.8544820840  MEMB      245             0.0000000000
     28983       245  POPC      C211          -15.3851286581       48.5967400131       -8.0010685718  MEMB      245             0.0000000000
     28984       245  POPC      H11R          -15.5423207589       49.6934352723       -7.9181763359  MEMB      245             0.0000000000
     28985       245  POPC      H11S          -14.9534544578       48.3789965775       -7.0007851236  MEMB      245             0.0000000000
     28986       245  POPC      C212          -16.7236966779       47.8495063117       -8.2113116178  MEMB      245             0.0000000000
     28987       245  POPC      H12R          -16.5016721014       46.8017499867       -8.5066635685  MEMB      245             0.0000000000
     28988       245  POPC      H12S          -17.2845855456       48.2854343115       -9.0655307593  MEMB      245             0.0000000000
     28989       245  POPC      C213          -17.6948923850       47.7811812319       -7.0194718980  MEMB      245             0.0000000000
     28990       245  POPC      H13R          -18.6883173699       47.3711436733       -7.3010693735  MEMB      245             0.0000000000
     28991       245  POPC      H13S          -17.9455621497       48.7780239747       -6.5978208704  MEMB      245             0.0000000000
     28992       245  POPC      C214          -17.1579098548       46.9528846646       -5.8514509089  MEMB      245             0.0000000000
     28993       245  POPC      H14R          -16.1301526572       47.3437153647       -5.6924307771  MEMB      245             0.0000000000
     28994       245  POPC      H14S          -17.1637081427       45.8972769172       -6.1978313050  MEMB      245             0.0000000000
     28995       245  POPC      C215          -17.9269085889       47.0061427920       -4.5125337076  MEMB      245             0.0000000000
     28996       245  POPC      H15R          -18.0550177644       48.0785972441       -4.2522442991  MEMB      245             0.0000000000
     28997       245  POPC      H15S          -17.3968790733       46.4895153593       -3.6839895667  MEMB      245             0.0000000000
     28998       245  POPC      C216          -19.3647094369       46.4624320573       -4.6068420088  MEMB      245             0.0000000000
     28999       245  POPC      H16R          -19.3022025174       45.4069312955       -4.9479170964  MEMB      245             0.0000000000
     29000       245  POPC      H16S          -19.9502911217       47.0392952213       -5.3542668291  MEMB      245             0.0000000000
     29001       245  POPC      C217          -20.1838743708       46.5172108340       -3.3222340082  MEMB      245             0.0000000000
     29002       245  POPC      H17R          -21.0250240114       45.9143229079       -3.7263559178  MEMB      245             0.0000000000
     29003       245  POPC      H17S          -20.4605810350       47.5499433855       -3.0202107982  MEMB      245             0.0000000000
     29004       245  POPC      C218          -19.6479049686       45.7808157155       -2.0091840356  MEMB      245             0.0000000000
     29005       245  POPC      H18R          -20.3810274362       45.6569899090       -1.1836421407  MEMB      245             0.0000000000
     29006       245  POPC      H18S          -18.7532924564       46.3006825615       -1.6045513408  MEMB      245             0.0000000000
     29007       245  POPC      H18T          -19.2895068631       44.7608183016       -2.2650687518  MEMB      245             0.0000000000
     29008       245  POPC      C33           -14.2407146441       44.0830240114      -11.8603412053  MEMB      245             0.0000000000
     29009       245  POPC      H3X           -13.1554380404       43.9056544757      -12.0185674774  MEMB      245             0.0000000000
     29010       245  POPC      H3Y           -14.6571138560       43.0696056740      -11.6761784975  MEMB      245             0.0000000000
     29011       245  POPC      C34           -14.4129079096       44.8038241964      -10.5370946753  MEMB      245             0.0000000000
     29012       245  POPC      H4X           -15.4948869169       44.8215924419      -10.2854457134  MEMB      245             0.0000000000
     29013       245  POPC      H4Y           -14.1021633390       45.8702427958      -10.5596758434  MEMB      245             0.0000000000
     29014       245  POPC      C35           -13.7809984476       44.0577158616       -9.3870349709  MEMB      245             0.0000000000
     29015       245  POPC      H5X           -12.6943882776       43.9978805542       -9.6106850351  MEMB      245             0.0000000000
     29016       245  POPC      H5Y           -14.2586208436       43.0583513242       -9.3006153850  MEMB      245             0.0000000000
     29017       245  POPC      C36           -13.7972488501       44.6361932939       -7.9539685526  MEMB      245             0.0000000000
     29018       245  POPC      H6X           -14.6609010085       45.3349232276       -7.9681902154  MEMB      245             0.0000000000
     29019       245  POPC      H6Y           -12.8499669562       45.2051803229       -7.8389389119  MEMB      245             0.0000000000
     29020       245  POPC      C37           -13.8166345826       43.6076722980       -6.8773108788  MEMB      245             0.0000000000
     29021       245  POPC      H7X           -12.9636880714       42.9221547510       -7.0693237136  MEMB      245             0.0000000000
     29022       245  POPC      H7Y           -14.6871753555       42.9206677822       -6.9444271167  MEMB      245             0.0000000000
     29023       245  POPC      C38           -14.0164252980       44.1883287567       -5.4901625000  MEMB      245             0.0000000000
     29024       245  POPC      H8X           -14.0788355797       43.3264528922       -4.7918811548  MEMB      245             0.0000000000
     29025       245  POPC      H8Y           -15.0457043634       44.6052205092       -5.4568888483  MEMB      245             0.0000000000
     29026       245  POPC      C39           -12.9006540663       45.1588141425       -4.9946486874  MEMB      245             0.0000000000
     29027       245  POPC      H9X           -12.7028128643       45.9362665202       -5.7632494109  MEMB      245             0.0000000000
     29028       245  POPC      H9Y           -11.9839859631       44.5315088327       -5.0176566544  MEMB      245             0.0000000000
     29029       245  POPC      C310          -13.0258289309       45.8503263491       -3.6765518721  MEMB      245             0.0000000000
     29030       245  POPC      H10X          -12.0632901746       46.3931225117       -3.5616074367  MEMB      245             0.0000000000
     29031       245  POPC      H10Y          -12.9953888244       45.0828103209       -2.8738609972  MEMB      245             0.0000000000
     29032       245  POPC      C311          -14.2411488195       46.7897487989       -3.6140832853  MEMB      245             0.0000000000
     29033       245  POPC      H11X          -15.0710313783       46.0611272479       -3.7354379413  MEMB      245             0.0000000000
     29034       245  POPC      H11Y          -14.1447233755       47.3864583026       -4.5462635962  MEMB      245             0.0000000000
     29035       245  POPC      C312          -14.2416768258       47.6591683491       -2.3648704989  MEMB      245             0.0000000000
     29036       245  POPC      H12X          -13.3556866055       48.3069374649       -2.5373163161  MEMB      245             0.0000000000
     29037       245  POPC      H12Y          -14.1483210831       47.0514716382       -1.4394989910  MEMB      245             0.0000000000
     29038       245  POPC      C313          -15.3630406637       48.6537080583       -2.1921273424  MEMB      245             0.0000000000
     29039       245  POPC      H13X          -15.9248711601       48.6038904963       -3.1493037221  MEMB      245             0.0000000000
     29040       245  POPC      H13Y          -14.9241205686       49.6688842356       -2.0868293003  MEMB      245             0.0000000000
     29041       245  POPC      C314          -16.2358803292       48.4006834772       -0.9682778645  MEMB      245             0.0000000000
     29042       245  POPC      H14X          -15.7364888803       48.3574450105        0.0232169853  MEMB      245             0.0000000000
     29043       245  POPC      H14Y          -16.6940547163       47.4035520865       -1.1418472319  MEMB      245             0.0000000000
     29044       245  POPC      C315          -17.4855164266       49.3366568827       -0.8878397273  MEMB      245             0.0000000000
     29045       245  POPC      H15X          -18.1070240533       49.1335559800       -1.7860593924  MEMB      245             0.0000000000
     29046       245  POPC      H15Y          -17.2046301832       50.4114495679       -0.8721683063  MEMB      245             0.0000000000
     29047       245  POPC      C316          -18.3973551442       49.1762630596        0.3655965135  MEMB      245             0.0000000000
     29048       245  POPC      H16X          -17.7023154286       49.3098033048        1.2219893371  MEMB      245             0.0000000000
     29049       245  POPC      H16Y          -19.1005172703       48.3182052335        0.3054196443  MEMB      245             0.0000000000
     29050       245  POPC      H16Z          -19.1583917167       49.9784505417        0.4734844086  MEMB      245             0.0000000000
     29051       246  POPC      N             -52.6349188062        9.4933497235      -17.2574353904  MEMB      246             0.0000000000
     29052       246  POPC      C12           -52.0920646759        9.7304963118      -18.6722162915  MEMB      246             0.0000000000
     29053       246  POPC      H12A          -51.0830343418       10.0841848205      -18.5200255024  MEMB      246             0.0000000000
     29054       246  POPC      H12B          -52.6531281768       10.4559250737      -19.2426204161  MEMB      246             0.0000000000
     29055       246  POPC      C13           -53.9928831671        8.8293201403      -17.2472892038  MEMB      246             0.0000000000
     29056       246  POPC      H13A          -53.8126838056        7.7952926243      -17.5016811777  MEMB      246             0.0000000000
     29057       246  POPC      H13B          -54.4657198577        8.9487955669      -16.2836756932  MEMB      246             0.0000000000
     29058       246  POPC      H13C          -54.6778203566        9.2736739248      -17.9542622620  MEMB      246             0.0000000000
     29059       246  POPC      C14           -51.7379857280        8.6187838553      -16.3543107386  MEMB      246             0.0000000000
     29060       246  POPC      H14A          -51.8389703118        7.6084697538      -16.7223700567  MEMB      246             0.0000000000
     29061       246  POPC      H14B          -50.7259280198        8.9537793424      -16.5272761137  MEMB      246             0.0000000000
     29062       246  POPC      H14C          -52.1886637680        8.7379828086      -15.3801029274  MEMB      246             0.0000000000
     29063       246  POPC      C15           -52.7877423354       10.8757192415      -16.7142840568  MEMB      246             0.0000000000
     29064       246  POPC      H15A          -51.8986359396       11.4652541941      -16.8826245169  MEMB      246             0.0000000000
     29065       246  POPC      H15B          -53.1594575343       10.7896605089      -15.7039268004  MEMB      246             0.0000000000
     29066       246  POPC      H15C          -53.5690936121       11.3942454190      -17.2500272961  MEMB      246             0.0000000000
     29067       246  POPC      C11           -51.7936002877        8.5014106382      -19.5499079980  MEMB      246             0.0000000000
     29068       246  POPC      H11A          -51.4406127915        7.6669025543      -18.9070105564  MEMB      246             0.0000000000
     29069       246  POPC      H11B          -51.1282179789        8.8271873679      -20.3778312372  MEMB      246             0.0000000000
     29070       246  POPC      P             -53.4942407979        6.9777203998      -20.7020961807  MEMB      246             0.0000000000
     29071       246  POPC      O13           -52.3056696495        6.1673971709      -21.0323135689  MEMB      246             0.0000000000
     29072       246  POPC      O14           -54.4628070487        7.1621576432      -21.8035505404  MEMB      246             0.0000000000
     29073       246  POPC      O12           -52.9927067918        8.3248318767      -20.1858173589  MEMB      246             0.0000000000
     29074       246  POPC      O11           -54.2096205761        6.4350221924      -19.4807786991  MEMB      246             0.0000000000
     29075       246  POPC      C1            -55.2531591536        5.4916570236      -19.5107060036  MEMB      246             0.0000000000
     29076       246  POPC      HA            -54.9622008438        4.6823194701      -20.2140105349  MEMB      246             0.0000000000
     29077       246  POPC      HB            -56.1798435465        5.9702425611      -19.8935022609  MEMB      246             0.0000000000
     29078       246  POPC      C2            -55.5665872769        4.7598550453      -18.1684904959  MEMB      246             0.0000000000
     29079       246  POPC      HS            -56.4111350932        4.0408571713      -18.2325407966  MEMB      246             0.0000000000
     29080       246  POPC      O21           -55.8659619942        5.6857079516      -17.1705392096  MEMB      246             0.0000000000
     29081       246  POPC      C21           -56.0854250290        5.1645206609      -15.9677911359  MEMB      246             0.0000000000
     29082       246  POPC      O22           -56.2552300911        3.9733269404      -15.7260401161  MEMB      246             0.0000000000
     29083       246  POPC      C22           -56.0302488905        6.3035322163      -14.9193595983  MEMB      246             0.0000000000
     29084       246  POPC      H2R           -56.8005339095        7.0340729109      -15.2469145393  MEMB      246             0.0000000000
     29085       246  POPC      H2S           -55.0601328751        6.8422249766      -14.8645321126  MEMB      246             0.0000000000
     29086       246  POPC      C3            -54.3347055009        3.8959694538      -17.9342651807  MEMB      246             0.0000000000
     29087       246  POPC      HX            -54.2403350888        3.2851187163      -18.8574532685  MEMB      246             0.0000000000
     29088       246  POPC      HY            -54.3338393039        3.1262829432      -17.1330770537  MEMB      246             0.0000000000
     29089       246  POPC      O31           -53.1749457145        4.7903602141      -17.7477728192  MEMB      246             0.0000000000
     29090       246  POPC      C31           -52.2145856372        4.2232687907      -16.9890757109  MEMB      246             0.0000000000
     29091       246  POPC      O32           -52.1874068206        3.0438537373      -16.6771861681  MEMB      246             0.0000000000
     29092       246  POPC      C32           -51.0159266884        5.1969365784      -16.6940344377  MEMB      246             0.0000000000
     29093       246  POPC      H2X           -51.3273168577        6.0608355272      -16.0687059503  MEMB      246             0.0000000000
     29094       246  POPC      H2Y           -50.7337142254        5.5771206637      -17.6990902582  MEMB      246             0.0000000000
     29095       246  POPC      C23           -56.4242932106        5.9137361031      -13.4321168685  MEMB      246             0.0000000000
     29096       246  POPC      H3R           -57.3170703487        5.2526262520      -13.4178332389  MEMB      246             0.0000000000
     29097       246  POPC      H3S           -56.5431041374        6.8789415832      -12.8949175416  MEMB      246             0.0000000000
     29098       246  POPC      C24           -55.2436474601        5.2248077826      -12.6764415094  MEMB      246             0.0000000000
     29099       246  POPC      H4R           -54.3562677237        5.8931786296      -12.6890265693  MEMB      246             0.0000000000
     29100       246  POPC      H4S           -54.9852124443        4.3102422390      -13.2518566132  MEMB      246             0.0000000000
     29101       246  POPC      C25           -55.5470939204        4.9864581727      -11.1363593723  MEMB      246             0.0000000000
     29102       246  POPC      H5R           -54.6212092683        4.5398266645      -10.7149587623  MEMB      246             0.0000000000
     29103       246  POPC      H5S           -56.4208632426        4.3005964319      -11.1153363297  MEMB      246             0.0000000000
     29104       246  POPC      C26           -55.9799823531        6.2090738628      -10.3541149866  MEMB      246             0.0000000000
     29105       246  POPC      H6R           -56.9665184194        6.6055878117      -10.6763637322  MEMB      246             0.0000000000
     29106       246  POPC      H6S           -55.2234671570        6.9951210889      -10.5641991309  MEMB      246             0.0000000000
     29107       246  POPC      C27           -56.1157268739        5.9212205371       -8.8727554389  MEMB      246             0.0000000000
     29108       246  POPC      H7R           -55.2447883497        5.3085470436       -8.5558673387  MEMB      246             0.0000000000
     29109       246  POPC      H7S           -56.9622352018        5.2119956382       -8.7513297015  MEMB      246             0.0000000000
     29110       246  POPC      C28           -56.0584251699        7.0198859605       -7.8517375621  MEMB      246             0.0000000000
     29111       246  POPC      H8R           -55.2289310821        7.6581404260       -8.2244205657  MEMB      246             0.0000000000
     29112       246  POPC      H8S           -55.8462276293        6.5123297194       -6.8865019360  MEMB      246             0.0000000000
     29113       246  POPC      C29           -57.2533543029        8.0344216723       -7.7394303940  MEMB      246             0.0000000000
     29114       246  POPC      H91           -57.2469786855        8.8527500193       -8.4744796453  MEMB      246             0.0000000000
     29115       246  POPC      C210          -58.2192388311        8.0309408894       -6.8364202824  MEMB      246             0.0000000000
     29116       246  POPC      H101          -59.1314685193        8.6456247631       -6.8369784792  MEMB      246             0.0000000000
     29117       246  POPC      C211          -58.3138364230        6.9966758071       -5.7246655641  MEMB      246             0.0000000000
     29118       246  POPC      H11R          -57.4667670996        6.2906762865       -5.8601614837  MEMB      246             0.0000000000
     29119       246  POPC      H11S          -59.2939706478        6.4739599732       -5.7040211472  MEMB      246             0.0000000000
     29120       246  POPC      C212          -58.1310977952        7.7599031114       -4.3460102368  MEMB      246             0.0000000000
     29121       246  POPC      H12R          -58.8121200991        8.6222314538       -4.1819382254  MEMB      246             0.0000000000
     29122       246  POPC      H12S          -57.1234496663        8.2277479341       -4.3553438946  MEMB      246             0.0000000000
     29123       246  POPC      C213          -58.0351383796        6.7897762581       -3.0524002225  MEMB      246             0.0000000000
     29124       246  POPC      H13R          -57.0941700388        6.2008229774       -3.0073068778  MEMB      246             0.0000000000
     29125       246  POPC      H13S          -58.8291337504        6.0182847592       -3.1456374217  MEMB      246             0.0000000000
     29126       246  POPC      C214          -58.3353721722        7.5607666224       -1.6229299370  MEMB      246             0.0000000000
     29127       246  POPC      H14R          -58.3914770083        6.8517558166       -0.7694220871  MEMB      246             0.0000000000
     29128       246  POPC      H14S          -59.3295524814        8.0523819449       -1.6880484353  MEMB      246             0.0000000000
     29129       246  POPC      C215          -57.4341434874        8.6846042857       -1.3629016044  MEMB      246             0.0000000000
     29130       246  POPC      H15R          -57.6811360859        9.4182694936       -2.1598020264  MEMB      246             0.0000000000
     29131       246  POPC      H15S          -56.3646991885        8.5101340962       -1.6081957854  MEMB      246             0.0000000000
     29132       246  POPC      C216          -57.7923357227        9.3023044958       -0.0473169439  MEMB      246             0.0000000000
     29133       246  POPC      H16R          -57.7884850073        8.4955329654        0.7165054104  MEMB      246             0.0000000000
     29134       246  POPC      H16S          -58.8208402140        9.7057702273        0.0697950164  MEMB      246             0.0000000000
     29135       246  POPC      C217          -56.9184215057       10.3519164562        0.5425041358  MEMB      246             0.0000000000
     29136       246  POPC      H17R          -56.9083677301       11.3263763056        0.0089798993  MEMB      246             0.0000000000
     29137       246  POPC      H17S          -55.9351576756        9.8418786337        0.4566301024  MEMB      246             0.0000000000
     29138       246  POPC      C218          -57.3667951100       10.7191584937        2.0074487360  MEMB      246             0.0000000000
     29139       246  POPC      H18R          -56.7129328472       11.5506175293        2.3472445739  MEMB      246             0.0000000000
     29140       246  POPC      H18S          -57.3848966372        9.8158255125        2.6539638991  MEMB      246             0.0000000000
     29141       246  POPC      H18T          -58.4257454478       11.0549558657        2.0210512071  MEMB      246             0.0000000000
     29142       246  POPC      C33           -49.8430267851        4.5789069796      -16.0423980247  MEMB      246             0.0000000000
     29143       246  POPC      H3X           -48.8485502737        5.0489547172      -16.1985803720  MEMB      246             0.0000000000
     29144       246  POPC      H3Y           -49.6702523826        3.6057530915      -16.5497848675  MEMB      246             0.0000000000
     29145       246  POPC      C34           -50.0116742808        4.3756185955      -14.5348604191  MEMB      246             0.0000000000
     29146       246  POPC      H4X           -49.1184869226        3.8218695593      -14.1744455228  MEMB      246             0.0000000000
     29147       246  POPC      H4Y           -50.9727869170        3.8649759021      -14.3116393168  MEMB      246             0.0000000000
     29148       246  POPC      C35           -49.9105023897        5.7280324690      -13.7794854077  MEMB      246             0.0000000000
     29149       246  POPC      H5X           -50.7809588444        6.3902654465      -13.9746109307  MEMB      246             0.0000000000
     29150       246  POPC      H5Y           -48.9713703506        6.1741576054      -14.1710516405  MEMB      246             0.0000000000
     29151       246  POPC      C36           -49.8438282188        5.5216121247      -12.2617676374  MEMB      246             0.0000000000
     29152       246  POPC      H6X           -48.9215427119        4.9422825474      -12.0424782934  MEMB      246             0.0000000000
     29153       246  POPC      H6Y           -50.7958756149        4.9891272516      -12.0510884704  MEMB      246             0.0000000000
     29154       246  POPC      C37           -49.8877270898        6.7663963967      -11.2963571498  MEMB      246             0.0000000000
     29155       246  POPC      H7X           -50.7176943590        7.4122221597      -11.6546650541  MEMB      246             0.0000000000
     29156       246  POPC      H7Y           -48.9171702807        7.2959174879      -11.4056623571  MEMB      246             0.0000000000
     29157       246  POPC      C38           -50.1809498328        6.4708972491       -9.8410206751  MEMB      246             0.0000000000
     29158       246  POPC      H8X           -50.4858731848        7.3257342294       -9.2002424050  MEMB      246             0.0000000000
     29159       246  POPC      H8Y           -49.2431288864        6.0247553820       -9.4463440961  MEMB      246             0.0000000000
     29160       246  POPC      C39           -51.2645587987        5.3792180866       -9.6117445145  MEMB      246             0.0000000000
     29161       246  POPC      H9X           -50.9128578094        4.3904308503       -9.9763365318  MEMB      246             0.0000000000
     29162       246  POPC      H9Y           -52.1714011313        5.6898814446      -10.1733904087  MEMB      246             0.0000000000
     29163       246  POPC      C310          -51.8046039790        5.0933558968       -8.1593881738  MEMB      246             0.0000000000
     29164       246  POPC      H10X          -50.9738233704        4.7241731315       -7.5207736517  MEMB      246             0.0000000000
     29165       246  POPC      H10Y          -52.5963620338        4.3161971969       -8.1005319055  MEMB      246             0.0000000000
     29166       246  POPC      C311          -52.2139048625        6.2482622912       -7.3493007955  MEMB      246             0.0000000000
     29167       246  POPC      H11X          -52.9561902785        6.7862709362       -7.9768996914  MEMB      246             0.0000000000
     29168       246  POPC      H11Y          -51.4337507085        6.9650670510       -7.0148292602  MEMB      246             0.0000000000
     29169       246  POPC      C312          -52.9572181672        5.7527051194       -6.1124795114  MEMB      246             0.0000000000
     29170       246  POPC      H12X          -52.3615950378        5.0980695199       -5.4409088570  MEMB      246             0.0000000000
     29171       246  POPC      H12Y          -53.7744029485        5.1127656229       -6.5087207095  MEMB      246             0.0000000000
     29172       246  POPC      C313          -53.4175576051        6.9591940751       -5.2946647672  MEMB      246             0.0000000000
     29173       246  POPC      H13X          -53.9096382661        7.7032616899       -5.9568889022  MEMB      246             0.0000000000
     29174       246  POPC      H13Y          -52.4724925817        7.4266119745       -4.9443882544  MEMB      246             0.0000000000
     29175       246  POPC      C314          -54.4293408905        6.6300644048       -4.1608529706  MEMB      246             0.0000000000
     29176       246  POPC      H14X          -55.2897825929        6.2649384033       -4.7613895014  MEMB      246             0.0000000000
     29177       246  POPC      H14Y          -54.7402412224        7.6062367423       -3.7310277526  MEMB      246             0.0000000000
     29178       246  POPC      C315          -53.8521761318        5.5670672587       -3.2526609793  MEMB      246             0.0000000000
     29179       246  POPC      H15X          -53.3879128607        4.7585241901       -3.8568458665  MEMB      246             0.0000000000
     29180       246  POPC      H15Y          -54.6672058931        5.1012823858       -2.6584449615  MEMB      246             0.0000000000
     29181       246  POPC      C316          -52.5955515439        6.0191401855       -2.2733471657  MEMB      246             0.0000000000
     29182       246  POPC      H16X          -52.1827968892        5.1486505540       -1.7199918864  MEMB      246             0.0000000000
     29183       246  POPC      H16Y          -52.9541246513        6.7594185974       -1.5265317583  MEMB      246             0.0000000000
     29184       246  POPC      H16Z          -51.7026535139        6.2593002617       -2.8892828014  MEMB      246             0.0000000000
     29185       247  POPC      N              37.8517931565      -31.4295587047      -18.8484687055  MEMB      247             0.0000000000
     29186       247  POPC      C12            39.0922365219      -30.6183642157      -18.7865929629  MEMB      247             0.0000000000
     29187       247  POPC      H12A           38.9591391089      -29.7206882625      -18.2010477818  MEMB      247             0.0000000000
     29188       247  POPC      H12B           39.3011998681      -30.3561047822      -19.8132157575  MEMB      247             0.0000000000
     29189       247  POPC      C13            38.0182555370      -32.7243729151      -19.6103966535  MEMB      247             0.0000000000
     29190       247  POPC      H13A           38.3967828777      -32.5117444979      -20.5992880566  MEMB      247             0.0000000000
     29191       247  POPC      H13B           38.6806942085      -33.3723977270      -19.0557446110  MEMB      247             0.0000000000
     29192       247  POPC      H13C           37.0610228241      -33.2016443265      -19.7597863557  MEMB      247             0.0000000000
     29193       247  POPC      C14            37.3655455549      -31.8561826227      -17.4070668958  MEMB      247             0.0000000000
     29194       247  POPC      H14A           38.0853233357      -32.5339914095      -16.9724462160  MEMB      247             0.0000000000
     29195       247  POPC      H14B           37.2597599075      -30.9870854561      -16.7747063616  MEMB      247             0.0000000000
     29196       247  POPC      H14C           36.4658534696      -32.4479339826      -17.4894347940  MEMB      247             0.0000000000
     29197       247  POPC      C15            36.6242765781      -30.7143813635      -19.4860241899  MEMB      247             0.0000000000
     29198       247  POPC      H15A           35.7882011996      -31.3979353270      -19.4975231467  MEMB      247             0.0000000000
     29199       247  POPC      H15B           36.7673979469      -30.5509579588      -20.5439509180  MEMB      247             0.0000000000
     29200       247  POPC      H15C           36.6075264434      -29.7437183883      -19.0128087755  MEMB      247             0.0000000000
     29201       247  POPC      C11            40.3206202865      -31.3502080797      -18.1201989947  MEMB      247             0.0000000000
     29202       247  POPC      H11A           39.9824643048      -31.7202657504      -17.1287209442  MEMB      247             0.0000000000
     29203       247  POPC      H11B           41.0860800001      -30.5577912559      -17.9771323266  MEMB      247             0.0000000000
     29204       247  POPC      P              42.1335246910      -32.6009501922      -19.4369236503  MEMB      247             0.0000000000
     29205       247  POPC      O13            42.5150291201      -31.3444947143      -20.1255173270  MEMB      247             0.0000000000
     29206       247  POPC      O14            42.2296287532      -33.8410648948      -20.1700306334  MEMB      247             0.0000000000
     29207       247  POPC      O12            40.6459620442      -32.4631947873      -18.9521395900  MEMB      247             0.0000000000
     29208       247  POPC      O11            42.9244306440      -32.7341541741      -18.0566403459  MEMB      247             0.0000000000
     29209       247  POPC      C1             43.9631006665      -33.7032897272      -17.9632385251  MEMB      247             0.0000000000
     29210       247  POPC      HA             44.8327058458      -33.4193228702      -18.5936912245  MEMB      247             0.0000000000
     29211       247  POPC      HB             43.5421774426      -34.6990034245      -18.2195567001  MEMB      247             0.0000000000
     29212       247  POPC      C2             44.4404126235      -33.7903755310      -16.4921481196  MEMB      247             0.0000000000
     29213       247  POPC      HS             44.8807461025      -34.7883425971      -16.2812239387  MEMB      247             0.0000000000
     29214       247  POPC      O21            43.3100996785      -33.5257012704      -15.6770094130  MEMB      247             0.0000000000
     29215       247  POPC      C21            42.3979284833      -34.4637538419      -15.5094487092  MEMB      247             0.0000000000
     29216       247  POPC      O22            42.5160126090      -35.5687000158      -16.0322768730  MEMB      247             0.0000000000
     29217       247  POPC      C22            41.4311744484      -34.0766336200      -14.3859038946  MEMB      247             0.0000000000
     29218       247  POPC      H2R            42.0369574263      -33.5949154999      -13.5888492377  MEMB      247             0.0000000000
     29219       247  POPC      H2S            40.9739822999      -35.0503771562      -14.1081984930  MEMB      247             0.0000000000
     29220       247  POPC      C3             45.6625461108      -32.8471389218      -16.0891523706  MEMB      247             0.0000000000
     29221       247  POPC      HX             46.4982156250      -33.0289400997      -16.7983252971  MEMB      247             0.0000000000
     29222       247  POPC      HY             45.9338378825      -33.1437309086      -15.0534135136  MEMB      247             0.0000000000
     29223       247  POPC      O31            45.2916909737      -31.4610196854      -16.3490155751  MEMB      247             0.0000000000
     29224       247  POPC      C31            44.8231740324      -30.7685418881      -15.2989949505  MEMB      247             0.0000000000
     29225       247  POPC      O32            44.7138240353      -31.3199224067      -14.1458525815  MEMB      247             0.0000000000
     29226       247  POPC      C32            44.3225272234      -29.3702432794      -15.6825406620  MEMB      247             0.0000000000
     29227       247  POPC      H2X            43.6041969185      -29.3816357733      -16.5300032685  MEMB      247             0.0000000000
     29228       247  POPC      H2Y            45.2115222085      -28.8597055919      -16.1107455127  MEMB      247             0.0000000000
     29229       247  POPC      C23            40.1854750419      -33.2179092810      -14.7097116928  MEMB      247             0.0000000000
     29230       247  POPC      H3R            39.6048659379      -33.5364786701      -15.6017475166  MEMB      247             0.0000000000
     29231       247  POPC      H3S            40.4036250399      -32.1367588970      -14.8432988322  MEMB      247             0.0000000000
     29232       247  POPC      C24            39.0498024174      -33.3802549974      -13.5830380519  MEMB      247             0.0000000000
     29233       247  POPC      H4R            38.9497137283      -34.4778947403      -13.4434305604  MEMB      247             0.0000000000
     29234       247  POPC      H4S            38.1263497564      -32.8833837448      -13.9500190304  MEMB      247             0.0000000000
     29235       247  POPC      C25            39.5624233089      -32.7336278936      -12.2647515468  MEMB      247             0.0000000000
     29236       247  POPC      H5R            39.8585167008      -31.6760918262      -12.4328799578  MEMB      247             0.0000000000
     29237       247  POPC      H5S            40.4732027559      -33.2394823028      -11.8788585649  MEMB      247             0.0000000000
     29238       247  POPC      C26            38.5270846675      -32.7294589567      -11.1341384445  MEMB      247             0.0000000000
     29239       247  POPC      H6R            38.2666938202      -33.8049493611      -11.0349517170  MEMB      247             0.0000000000
     29240       247  POPC      H6S            37.6346977817      -32.1520456688      -11.4574970351  MEMB      247             0.0000000000
     29241       247  POPC      C27            39.1014485755      -32.1858594656       -9.8628203148  MEMB      247             0.0000000000
     29242       247  POPC      H7R            39.3923868735      -31.1139808528       -9.8902427686  MEMB      247             0.0000000000
     29243       247  POPC      H7S            40.0926536186      -32.6235434630       -9.6173277841  MEMB      247             0.0000000000
     29244       247  POPC      C28            38.1275483144      -32.2563430120       -8.6720228078  MEMB      247             0.0000000000
     29245       247  POPC      H8R            37.2677573493      -31.7280227239       -9.1367357724  MEMB      247             0.0000000000
     29246       247  POPC      H8S            38.4941617765      -31.6762053163       -7.7983200176  MEMB      247             0.0000000000
     29247       247  POPC      C29            37.6132325727      -33.6365805288       -8.3943466987  MEMB      247             0.0000000000
     29248       247  POPC      H91            37.1960694860      -34.2809226279       -9.1822542080  MEMB      247             0.0000000000
     29249       247  POPC      C210           37.4114365651      -34.1483530011       -7.1257186108  MEMB      247             0.0000000000
     29250       247  POPC      H101           36.9317057432      -35.1366700309       -7.0701531883  MEMB      247             0.0000000000
     29251       247  POPC      C211           37.6164523163      -33.4530150681       -5.8296342691  MEMB      247             0.0000000000
     29252       247  POPC      H11R           38.4673980191      -32.7589509304       -5.9984166525  MEMB      247             0.0000000000
     29253       247  POPC      H11S           37.8950969662      -34.1988533858       -5.0547772066  MEMB      247             0.0000000000
     29254       247  POPC      C212           36.4206277535      -32.5646027609       -5.3123434462  MEMB      247             0.0000000000
     29255       247  POPC      H12R           35.4771370406      -33.1487193888       -5.3666955847  MEMB      247             0.0000000000
     29256       247  POPC      H12S           36.2347449434      -31.6577887826       -5.9267178786  MEMB      247             0.0000000000
     29257       247  POPC      C213           36.4756938706      -32.1327678674       -3.7864927825  MEMB      247             0.0000000000
     29258       247  POPC      H13R           36.1696741201      -33.0029064876       -3.1671927095  MEMB      247             0.0000000000
     29259       247  POPC      H13S           35.7802563150      -31.2985804405       -3.5523581069  MEMB      247             0.0000000000
     29260       247  POPC      C214           37.7678558156      -31.4625193610       -3.3201190797  MEMB      247             0.0000000000
     29261       247  POPC      H14R           38.2346314363      -30.7229951033       -4.0053532234  MEMB      247             0.0000000000
     29262       247  POPC      H14S           38.6107952536      -32.1814804657       -3.4029993342  MEMB      247             0.0000000000
     29263       247  POPC      C215           37.8082359922      -30.9749716114       -1.7966509671  MEMB      247             0.0000000000
     29264       247  POPC      H15R           37.1545505954      -30.0791099374       -1.7299538838  MEMB      247             0.0000000000
     29265       247  POPC      H15S           38.8081274927      -30.5788442176       -1.5180441924  MEMB      247             0.0000000000
     29266       247  POPC      C216           37.2287837605      -31.8357070809       -0.7077419072  MEMB      247             0.0000000000
     29267       247  POPC      H16R           36.1632029185      -32.0518312095       -0.9361037798  MEMB      247             0.0000000000
     29268       247  POPC      H16S           37.2031634735      -31.1863189010        0.1933465394  MEMB      247             0.0000000000
     29269       247  POPC      C217           37.9319940962      -33.1900560217       -0.4617696580  MEMB      247             0.0000000000
     29270       247  POPC      H17R           38.9317038515      -32.9437118978       -0.0443782163  MEMB      247             0.0000000000
     29271       247  POPC      H17S           38.0956398560      -33.6428642763       -1.4630209818  MEMB      247             0.0000000000
     29272       247  POPC      C218           37.1756010090      -34.1514711037        0.3768589530  MEMB      247             0.0000000000
     29273       247  POPC      H18R           37.8208165790      -35.0558082446        0.3907208190  MEMB      247             0.0000000000
     29274       247  POPC      H18S           36.2010302177      -34.4636975522       -0.0556328535  MEMB      247             0.0000000000
     29275       247  POPC      H18T           37.0138946994      -33.7605195915        1.4041498649  MEMB      247             0.0000000000
     29276       247  POPC      C33            43.7868001133      -28.5588846061      -14.4348825442  MEMB      247             0.0000000000
     29277       247  POPC      H3X            43.7172093046      -27.4793750897      -14.6881358457  MEMB      247             0.0000000000
     29278       247  POPC      H3Y            44.5117528001      -28.6804782544      -13.6018280644  MEMB      247             0.0000000000
     29279       247  POPC      C34            42.3635682840      -28.8968579874      -14.0487608957  MEMB      247             0.0000000000
     29280       247  POPC      H4X            42.3671387288      -30.0067106625      -13.9984083068  MEMB      247             0.0000000000
     29281       247  POPC      H4Y            41.7768998540      -28.4668552659      -14.8885455325  MEMB      247             0.0000000000
     29282       247  POPC      C35            41.8827393793      -28.2773430726      -12.8346501438  MEMB      247             0.0000000000
     29283       247  POPC      H5X            40.7941151676      -28.4990498170      -12.8426504078  MEMB      247             0.0000000000
     29284       247  POPC      H5Y            41.9665223262      -27.1733017217      -12.9262673972  MEMB      247             0.0000000000
     29285       247  POPC      C36            42.5077348507      -28.7287993264      -11.4670347219  MEMB      247             0.0000000000
     29286       247  POPC      H6X            41.9277360632      -28.2787597096      -10.6331359139  MEMB      247             0.0000000000
     29287       247  POPC      H6Y            43.5617024579      -28.3806419133      -11.5145687778  MEMB      247             0.0000000000
     29288       247  POPC      C37            42.5797089236      -30.2045069165      -11.2825155127  MEMB      247             0.0000000000
     29289       247  POPC      H7X            43.3090218659      -30.7064536836      -11.9536880255  MEMB      247             0.0000000000
     29290       247  POPC      H7Y            41.6013745970      -30.7022592868      -11.4540535543  MEMB      247             0.0000000000
     29291       247  POPC      C38            43.1412763035      -30.7294008233       -9.8944408450  MEMB      247             0.0000000000
     29292       247  POPC      H8X            44.0496648298      -30.1082853956       -9.7415788048  MEMB      247             0.0000000000
     29293       247  POPC      H8Y            43.3334321863      -31.8215341872       -9.9625722213  MEMB      247             0.0000000000
     29294       247  POPC      C39            42.1700415625      -30.4158928130       -8.8014960799  MEMB      247             0.0000000000
     29295       247  POPC      H9X            41.1886979715      -30.9086072306       -8.9703695795  MEMB      247             0.0000000000
     29296       247  POPC      H9Y            41.9263683216      -29.3332746607       -8.7478084386  MEMB      247             0.0000000000
     29297       247  POPC      C310           42.5590112664      -31.0485635364       -7.4753981825  MEMB      247             0.0000000000
     29298       247  POPC      H10X           43.4360991553      -30.5003497424       -7.0698132609  MEMB      247             0.0000000000
     29299       247  POPC      H10Y           42.7503217704      -32.1327528182       -7.6245794053  MEMB      247             0.0000000000
     29300       247  POPC      C311           41.3607764686      -30.9773237588       -6.4151843573  MEMB      247             0.0000000000
     29301       247  POPC      H11X           40.3682769698      -31.3211693321       -6.7771728899  MEMB      247             0.0000000000
     29302       247  POPC      H11Y           41.1513163232      -29.9096399553       -6.1904657188  MEMB      247             0.0000000000
     29303       247  POPC      C312           41.7373388032      -31.7003565046       -5.0250848137  MEMB      247             0.0000000000
     29304       247  POPC      H12X           40.9766541720      -31.3639360102       -4.2885387170  MEMB      247             0.0000000000
     29305       247  POPC      H12Y           42.7158211154      -31.3361925489       -4.6452451361  MEMB      247             0.0000000000
     29306       247  POPC      C313           41.7697442623      -33.1999852835       -5.3083951513  MEMB      247             0.0000000000
     29307       247  POPC      H13X           42.5982809944      -33.4879412147       -5.9902517339  MEMB      247             0.0000000000
     29308       247  POPC      H13Y           40.8595694351      -33.4962112249       -5.8724454862  MEMB      247             0.0000000000
     29309       247  POPC      C314           41.9452134109      -34.0710350060       -3.9840025019  MEMB      247             0.0000000000
     29310       247  POPC      H14X           42.8222789538      -33.6015603352       -3.4893609421  MEMB      247             0.0000000000
     29311       247  POPC      H14Y           42.1616023503      -35.0374234713       -4.4875798291  MEMB      247             0.0000000000
     29312       247  POPC      C315           40.7776474978      -34.2790117915       -3.1114670171  MEMB      247             0.0000000000
     29313       247  POPC      H15X           39.7622102569      -34.5138961124       -3.4962221857  MEMB      247             0.0000000000
     29314       247  POPC      H15Y           40.5180545973      -33.2855970996       -2.6871313719  MEMB      247             0.0000000000
     29315       247  POPC      C316           41.1044592810      -35.2926970886       -1.9927812710  MEMB      247             0.0000000000
     29316       247  POPC      H16X           40.2647178922      -35.4125274151       -1.2752880326  MEMB      247             0.0000000000
     29317       247  POPC      H16Y           42.0889254038      -34.9704988757       -1.5911150308  MEMB      247             0.0000000000
     29318       247  POPC      H16Z           41.2394139706      -36.2785257930       -2.4869982682  MEMB      247             0.0000000000
     29319       248  POPC      N              34.5905168998       38.8652614826      -20.1216299113  MEMB      248             0.0000000000
     29320       248  POPC      C12            33.7720273997       38.0001114940      -19.0705597316  MEMB      248             0.0000000000
     29321       248  POPC      H12A           34.2677909258       37.0546192098      -18.9072718117  MEMB      248             0.0000000000
     29322       248  POPC      H12B           32.8643425787       37.7167138519      -19.5826085096  MEMB      248             0.0000000000
     29323       248  POPC      C13            35.5584370918       39.6681815441      -19.3587733268  MEMB      248             0.0000000000
     29324       248  POPC      H13A           36.3813911038       39.0842956167      -18.9737745496  MEMB      248             0.0000000000
     29325       248  POPC      H13B           35.9748838657       40.4559663781      -19.9689921849  MEMB      248             0.0000000000
     29326       248  POPC      H13C           35.0233753893       40.1799464162      -18.5725127544  MEMB      248             0.0000000000
     29327       248  POPC      C14            35.2180270035       37.9184104420      -21.1484974998  MEMB      248             0.0000000000
     29328       248  POPC      H14A           35.5880210604       38.4486590562      -22.0135644793  MEMB      248             0.0000000000
     29329       248  POPC      H14B           35.9317771426       37.2622195134      -20.6727096518  MEMB      248             0.0000000000
     29330       248  POPC      H14C           34.4226267421       37.3199598865      -21.5675384848  MEMB      248             0.0000000000
     29331       248  POPC      C15            33.7894829060       39.8946662907      -20.8552570158  MEMB      248             0.0000000000
     29332       248  POPC      H15A           32.9312233693       39.3924910400      -21.2766958284  MEMB      248             0.0000000000
     29333       248  POPC      H15B           34.3025891649       40.3124063522      -21.7088465064  MEMB      248             0.0000000000
     29334       248  POPC      H15C           33.5112663265       40.7222481198      -20.2195654231  MEMB      248             0.0000000000
     29335       248  POPC      C11            33.3451516064       38.7057848641      -17.7007870077  MEMB      248             0.0000000000
     29336       248  POPC      H11A           34.2669591932       38.7939723959      -17.0869346897  MEMB      248             0.0000000000
     29337       248  POPC      H11B           32.6507352680       37.9938077473      -17.2056148540  MEMB      248             0.0000000000
     29338       248  POPC      P              31.2212190390       40.1713837147      -18.2304513405  MEMB      248             0.0000000000
     29339       248  POPC      O13            30.5930623222       38.8960478569      -17.9644624070  MEMB      248             0.0000000000
     29340       248  POPC      O14            31.1326633660       40.7883238058      -19.5809558639  MEMB      248             0.0000000000
     29341       248  POPC      O12            32.7378039461       39.9556503523      -17.9262039704  MEMB      248             0.0000000000
     29342       248  POPC      O11            30.7533941148       41.1466022757      -17.0424219618  MEMB      248             0.0000000000
     29343       248  POPC      C1             30.8311557368       42.5395588750      -17.3054641242  MEMB      248             0.0000000000
     29344       248  POPC      HA             30.2884303454       42.8666128818      -16.3928821691  MEMB      248             0.0000000000
     29345       248  POPC      HB             30.2419720920       42.9045322978      -18.1737831009  MEMB      248             0.0000000000
     29346       248  POPC      C2             32.2670407810       43.0899963608      -17.4094876118  MEMB      248             0.0000000000
     29347       248  POPC      HS             32.7457034207       42.8939861829      -18.3927387259  MEMB      248             0.0000000000
     29348       248  POPC      O21            32.9076185522       42.4368733691      -16.2964688666  MEMB      248             0.0000000000
     29349       248  POPC      C21            34.2043048265       42.1776398670      -16.4592018739  MEMB      248             0.0000000000
     29350       248  POPC      O22            34.9203596819       42.5615520836      -17.3873598296  MEMB      248             0.0000000000
     29351       248  POPC      C22            34.8640064763       41.2434143813      -15.3096500025  MEMB      248             0.0000000000
     29352       248  POPC      H2R            35.6800210723       41.8290102060      -14.8347614807  MEMB      248             0.0000000000
     29353       248  POPC      H2S            35.2963512623       40.3965091249      -15.8842370659  MEMB      248             0.0000000000
     29354       248  POPC      C3             32.2303404262       44.6389801174      -17.1633820643  MEMB      248             0.0000000000
     29355       248  POPC      HX             31.6071176439       45.2032511457      -17.8896823932  MEMB      248             0.0000000000
     29356       248  POPC      HY             33.2976562059       44.9466585369      -17.1411961801  MEMB      248             0.0000000000
     29357       248  POPC      O31            31.6154770858       45.0163414602      -15.9027756417  MEMB      248             0.0000000000
     29358       248  POPC      C31            32.3956226827       45.1934669881      -14.8873761748  MEMB      248             0.0000000000
     29359       248  POPC      O32            33.6195180863       45.0599060472      -14.8916097197  MEMB      248             0.0000000000
     29360       248  POPC      C32            31.5916382737       45.5943765970      -13.6459550268  MEMB      248             0.0000000000
     29361       248  POPC      H2X            30.7292557288       44.9101273090      -13.4962213401  MEMB      248             0.0000000000
     29362       248  POPC      H2Y            31.1240625469       46.5972956643      -13.7451884976  MEMB      248             0.0000000000
     29363       248  POPC      C23            33.8386972129       40.9889543473      -14.1988369248  MEMB      248             0.0000000000
     29364       248  POPC      H3R            32.9218363973       40.4330491878      -14.4897958168  MEMB      248             0.0000000000
     29365       248  POPC      H3S            33.4894120923       41.9316320619      -13.7258891933  MEMB      248             0.0000000000
     29366       248  POPC      C24            34.5154498760       40.2745871333      -13.0469523231  MEMB      248             0.0000000000
     29367       248  POPC      H4R            35.4301401616       40.8473360276      -12.7830934400  MEMB      248             0.0000000000
     29368       248  POPC      H4S            34.9590845362       39.3027558393      -13.3519986001  MEMB      248             0.0000000000
     29369       248  POPC      C25            33.6451908808       39.8849459877      -11.7539791811  MEMB      248             0.0000000000
     29370       248  POPC      H5R            32.8040407773       39.2933977409      -12.1745241816  MEMB      248             0.0000000000
     29371       248  POPC      H5S            33.0662541323       40.7435487680      -11.3515436904  MEMB      248             0.0000000000
     29372       248  POPC      C26            34.2719391437       38.9419323857      -10.7647429600  MEMB      248             0.0000000000
     29373       248  POPC      H6R            35.0543697607       38.3678453830      -11.3056195621  MEMB      248             0.0000000000
     29374       248  POPC      H6S            33.5084104123       38.3343071669      -10.2335775315  MEMB      248             0.0000000000
     29375       248  POPC      C27            35.1292688145       39.7159050168       -9.7302351548  MEMB      248             0.0000000000
     29376       248  POPC      H7R            34.4362282425       40.2454663334       -9.0420630403  MEMB      248             0.0000000000
     29377       248  POPC      H7S            35.6768765873       40.4547491513      -10.3535778688  MEMB      248             0.0000000000
     29378       248  POPC      C28            35.9237908895       38.7411799631       -8.8298877954  MEMB      248             0.0000000000
     29379       248  POPC      H8R            36.6988645015       39.3314029732       -8.2958284685  MEMB      248             0.0000000000
     29380       248  POPC      H8S            36.4163826599       38.0178067504       -9.5142894254  MEMB      248             0.0000000000
     29381       248  POPC      C29            35.0429882687       38.0405275072       -7.8229938240  MEMB      248             0.0000000000
     29382       248  POPC      H91            34.1615326800       37.5555826984       -8.2678134820  MEMB      248             0.0000000000
     29383       248  POPC      C210           35.1614295911       37.9425333300       -6.4696644815  MEMB      248             0.0000000000
     29384       248  POPC      H101           34.4261449647       37.3105312534       -5.9501166974  MEMB      248             0.0000000000
     29385       248  POPC      C211           36.1759698566       38.5006577549       -5.5179672953  MEMB      248             0.0000000000
     29386       248  POPC      H11R           37.0079634959       39.0539381871       -6.0037532146  MEMB      248             0.0000000000
     29387       248  POPC      H11S           36.6441421349       37.6697011945       -4.9481890726  MEMB      248             0.0000000000
     29388       248  POPC      C212           35.8042332537       39.4685376970       -4.3416563445  MEMB      248             0.0000000000
     29389       248  POPC      H12R           36.5854634395       39.5272947579       -3.5539070116  MEMB      248             0.0000000000
     29390       248  POPC      H12S           34.9198946947       38.9763373222       -3.8833927802  MEMB      248             0.0000000000
     29391       248  POPC      C213           35.5594665837       40.8477100186       -4.9088552526  MEMB      248             0.0000000000
     29392       248  POPC      H13R           34.7831553736       40.5974199421       -5.6631874571  MEMB      248             0.0000000000
     29393       248  POPC      H13S           36.4183617112       41.3205904023       -5.4313538053  MEMB      248             0.0000000000
     29394       248  POPC      C214           35.0058277701       41.9180735071       -3.9187900392  MEMB      248             0.0000000000
     29395       248  POPC      H14R           34.6366978513       42.7283837500       -4.5832150787  MEMB      248             0.0000000000
     29396       248  POPC      H14S           35.9142723100       42.1946236963       -3.3421012002  MEMB      248             0.0000000000
     29397       248  POPC      C215           33.7902443991       41.4505185317       -3.0977114259  MEMB      248             0.0000000000
     29398       248  POPC      H15R           33.9380712986       40.4456667728       -2.6474440559  MEMB      248             0.0000000000
     29399       248  POPC      H15S           32.9566213549       41.4042948578       -3.8306898862  MEMB      248             0.0000000000
     29400       248  POPC      C216           33.2928016935       42.4321743105       -2.0274248685  MEMB      248             0.0000000000
     29401       248  POPC      H16R           33.9403270700       42.4564112760       -1.1249593544  MEMB      248             0.0000000000
     29402       248  POPC      H16S           32.2923572873       42.1313790786       -1.6493315844  MEMB      248             0.0000000000
     29403       248  POPC      C217           33.0234742551       43.8140798261       -2.6723359696  MEMB      248             0.0000000000
     29404       248  POPC      H17R           32.4446453900       43.6368216923       -3.6039244503  MEMB      248             0.0000000000
     29405       248  POPC      H17S           34.0333222921       44.2353365797       -2.8648737996  MEMB      248             0.0000000000
     29406       248  POPC      C218           32.2139643566       44.8140628326       -1.8679375667  MEMB      248             0.0000000000
     29407       248  POPC      H18R           31.7756266202       45.6714207813       -2.4221205612  MEMB      248             0.0000000000
     29408       248  POPC      H18S           32.8201803267       45.1381605141       -0.9951354254  MEMB      248             0.0000000000
     29409       248  POPC      H18T           31.3010214543       44.2232123497       -1.6404477087  MEMB      248             0.0000000000
     29410       248  POPC      C33            32.5460968910       45.3867793540      -12.4231235093  MEMB      248             0.0000000000
     29411       248  POPC      H3X            33.4808454846       45.9827596085      -12.4964285403  MEMB      248             0.0000000000
     29412       248  POPC      H3Y            32.7017933737       44.2942167010      -12.2951143186  MEMB      248             0.0000000000
     29413       248  POPC      C34            31.8300916601       45.9397051648      -11.2582329177  MEMB      248             0.0000000000
     29414       248  POPC      H4X            30.9065337717       45.3489830302      -11.0782073791  MEMB      248             0.0000000000
     29415       248  POPC      H4Y            31.6231742286       47.0073320715      -11.4855647833  MEMB      248             0.0000000000
     29416       248  POPC      C35            32.6100160180       45.9233288141       -9.9474478615  MEMB      248             0.0000000000
     29417       248  POPC      H5X            32.1774746887       46.6655121427       -9.2428961042  MEMB      248             0.0000000000
     29418       248  POPC      H5Y            33.6547835201       46.2581418107      -10.1226116859  MEMB      248             0.0000000000
     29419       248  POPC      C36            32.4121164390       44.5096706385       -9.3008285264  MEMB      248             0.0000000000
     29420       248  POPC      H6X            33.0749342289       43.7767722873       -9.8086219197  MEMB      248             0.0000000000
     29421       248  POPC      H6Y            31.3733684519       44.1680086965       -9.4972732211  MEMB      248             0.0000000000
     29422       248  POPC      C37            32.4410753422       44.5664467351       -7.7977462769  MEMB      248             0.0000000000
     29423       248  POPC      H7X            31.9740381641       45.4796158145       -7.3707569075  MEMB      248             0.0000000000
     29424       248  POPC      H7Y            33.4663841911       44.5849330172       -7.3702875721  MEMB      248             0.0000000000
     29425       248  POPC      C38            31.5115060241       43.4938429888       -7.2087369818  MEMB      248             0.0000000000
     29426       248  POPC      H8X            30.4446160602       43.6947493462       -7.4447525903  MEMB      248             0.0000000000
     29427       248  POPC      H8Y            31.5453621270       43.6600941940       -6.1107680868  MEMB      248             0.0000000000
     29428       248  POPC      C39            31.9849754873       42.1206168454       -7.5407873154  MEMB      248             0.0000000000
     29429       248  POPC      H9X            33.0907060874       42.0205400528       -7.4999776344  MEMB      248             0.0000000000
     29430       248  POPC      H9Y            31.6907229376       41.8728818429       -8.5830756297  MEMB      248             0.0000000000
     29431       248  POPC      C310           31.4288516243       41.0105374784       -6.5547686088  MEMB      248             0.0000000000
     29432       248  POPC      H10X           31.9059167825       41.1395438315       -5.5597374142  MEMB      248             0.0000000000
     29433       248  POPC      H10Y           31.7678516423       40.0137219306       -6.9093936800  MEMB      248             0.0000000000
     29434       248  POPC      C311           29.9141489210       40.8618313672       -6.2523480829  MEMB      248             0.0000000000
     29435       248  POPC      H11X           29.2940905580       41.0879077407       -7.1460698372  MEMB      248             0.0000000000
     29436       248  POPC      H11Y           29.4401112654       41.6414882806       -5.6185144164  MEMB      248             0.0000000000
     29437       248  POPC      C312           29.6611446597       39.4706080178       -5.7759376209  MEMB      248             0.0000000000
     29438       248  POPC      H12X           30.1155956969       38.7311540185       -6.4694808639  MEMB      248             0.0000000000
     29439       248  POPC      H12Y           28.5590558072       39.3332382176       -5.8051039309  MEMB      248             0.0000000000
     29440       248  POPC      C313           30.2082149596       39.2954639569       -4.3077771667  MEMB      248             0.0000000000
     29441       248  POPC      H13X           29.4266882000       39.7555118700       -3.6659886022  MEMB      248             0.0000000000
     29442       248  POPC      H13Y           31.1328512143       39.9043835460       -4.2151197837  MEMB      248             0.0000000000
     29443       248  POPC      C314           30.4499151071       37.8523223478       -3.9092126244  MEMB      248             0.0000000000
     29444       248  POPC      H14X           31.0797848690       37.3393270282       -4.6671185236  MEMB      248             0.0000000000
     29445       248  POPC      H14Y           29.4439558466       37.3843428044       -3.8512315084  MEMB      248             0.0000000000
     29446       248  POPC      C315           31.0562087192       37.6849491740       -2.5009051655  MEMB      248             0.0000000000
     29447       248  POPC      H15X           32.0292272861       38.2101398477       -2.3925997268  MEMB      248             0.0000000000
     29448       248  POPC      H15Y           31.2382661864       36.6214335741       -2.2361194622  MEMB      248             0.0000000000
     29449       248  POPC      C316           30.2074968613       38.0515624580       -1.3448444279  MEMB      248             0.0000000000
     29450       248  POPC      H16X           29.2824977858       37.4363259628       -1.3583162491  MEMB      248             0.0000000000
     29451       248  POPC      H16Y           29.8586021224       39.0980567976       -1.4769183065  MEMB      248             0.0000000000
     29452       248  POPC      H16Z           30.7620520046       37.9243808721       -0.3905828273  MEMB      248             0.0000000000
     29453       249  POPC      N             -38.3818176570       32.4588707031      -20.5148327907  MEMB      249             0.0000000000
     29454       249  POPC      C12           -38.8261124486       33.8515181936      -20.8552083140  MEMB      249             0.0000000000
     29455       249  POPC      H12A          -39.6614545497       33.6659592654      -21.5141250390  MEMB      249             0.0000000000
     29456       249  POPC      H12B          -38.0437274859       34.3446533630      -21.4129642733  MEMB      249             0.0000000000
     29457       249  POPC      C13           -38.0836533319       31.6908677317      -21.7816531691  MEMB      249             0.0000000000
     29458       249  POPC      H13A          -39.0110759540       31.6724592656      -22.3347789825  MEMB      249             0.0000000000
     29459       249  POPC      H13B          -37.3415535639       32.2801772831      -22.2997285446  MEMB      249             0.0000000000
     29460       249  POPC      H13C          -37.6650633253       30.7091605723      -21.6160219550  MEMB      249             0.0000000000
     29461       249  POPC      C14           -37.1739884194       32.4676455332      -19.6483465189  MEMB      249             0.0000000000
     29462       249  POPC      H14A          -37.2283238707       33.0589657223      -18.7462444572  MEMB      249             0.0000000000
     29463       249  POPC      H14B          -37.0872182419       31.4689770456      -19.2464361602  MEMB      249             0.0000000000
     29464       249  POPC      H14C          -36.2830774241       32.6439996813      -20.2327924255  MEMB      249             0.0000000000
     29465       249  POPC      C15           -39.5428745415       31.8295562798      -19.8291665917  MEMB      249             0.0000000000
     29466       249  POPC      H15A          -39.4706356767       30.7691832166      -19.6373581964  MEMB      249             0.0000000000
     29467       249  POPC      H15B          -40.4420261953       31.8928441659      -20.4240792802  MEMB      249             0.0000000000
     29468       249  POPC      H15C          -39.6525911087       32.3049327985      -18.8656421537  MEMB      249             0.0000000000
     29469       249  POPC      C11           -39.4042858254       34.7749097593      -19.7231155102  MEMB      249             0.0000000000
     29470       249  POPC      H11A          -40.3922031392       34.3882774402      -19.3931824310  MEMB      249             0.0000000000
     29471       249  POPC      H11B          -39.6097744931       35.7750810609      -20.1610115636  MEMB      249             0.0000000000
     29472       249  POPC      P             -39.0728653214       35.3640598436      -17.2639708708  MEMB      249             0.0000000000
     29473       249  POPC      O13           -39.7476600274       36.6945215778      -17.4672331155  MEMB      249             0.0000000000
     29474       249  POPC      O14           -37.9151711371       35.3264315196      -16.3340180210  MEMB      249             0.0000000000
     29475       249  POPC      O12           -38.4172664855       34.8495736989      -18.7088306688  MEMB      249             0.0000000000
     29476       249  POPC      O11           -40.1170205890       34.2080748807      -16.8736244273  MEMB      249             0.0000000000
     29477       249  POPC      C1            -39.5359675771       32.9791414026      -16.4818940579  MEMB      249             0.0000000000
     29478       249  POPC      HA            -38.8931934747       33.1130045681      -15.5856556695  MEMB      249             0.0000000000
     29479       249  POPC      HB            -38.9165147486       32.5912903155      -17.3186560461  MEMB      249             0.0000000000
     29480       249  POPC      C2            -40.6308894210       31.9822729488      -16.2905820766  MEMB      249             0.0000000000
     29481       249  POPC      HS            -41.3064052669       32.1676201723      -17.1529310759  MEMB      249             0.0000000000
     29482       249  POPC      O21           -41.3445201346       32.2626479789      -15.1436698130  MEMB      249             0.0000000000
     29483       249  POPC      C21           -42.6181071753       31.8344474817      -14.9719057270  MEMB      249             0.0000000000
     29484       249  POPC      O22           -43.3278775395       31.2519042696      -15.8050835111  MEMB      249             0.0000000000
     29485       249  POPC      C22           -43.2008281019       32.2476657318      -13.5745324907  MEMB      249             0.0000000000
     29486       249  POPC      H2R           -43.4181143777       31.3590849902      -12.9440312741  MEMB      249             0.0000000000
     29487       249  POPC      H2S           -44.1680348934       32.7169887538      -13.8548324267  MEMB      249             0.0000000000
     29488       249  POPC      C3            -40.1532992892       30.5450280374      -16.1596632460  MEMB      249             0.0000000000
     29489       249  POPC      HX            -39.6386091690       30.2273964253      -17.0916100819  MEMB      249             0.0000000000
     29490       249  POPC      HY            -41.0635688946       29.9644755878      -15.8975770726  MEMB      249             0.0000000000
     29491       249  POPC      O31           -39.2658812733       30.3144566832      -15.0140270036  MEMB      249             0.0000000000
     29492       249  POPC      C31           -37.9992186016       30.0077282405      -15.1950405294  MEMB      249             0.0000000000
     29493       249  POPC      O32           -37.4091452109       30.0359099899      -16.2910751050  MEMB      249             0.0000000000
     29494       249  POPC      C32           -37.3390842104       29.9616914776      -13.7744262911  MEMB      249             0.0000000000
     29495       249  POPC      H2X           -36.3458106921       29.4699413223      -13.8513036396  MEMB      249             0.0000000000
     29496       249  POPC      H2Y           -37.9300631524       29.2575858092      -13.1504871789  MEMB      249             0.0000000000
     29497       249  POPC      C23           -42.1782173236       33.1010341315      -12.8083135701  MEMB      249             0.0000000000
     29498       249  POPC      H3R           -41.7002787637       33.8443385208      -13.4816594778  MEMB      249             0.0000000000
     29499       249  POPC      H3S           -41.5079731243       32.4519029549      -12.2052199905  MEMB      249             0.0000000000
     29500       249  POPC      C24           -42.9881443087       33.9944406614      -11.8123009984  MEMB      249             0.0000000000
     29501       249  POPC      H4R           -43.6567028139       34.6398028738      -12.4212825678  MEMB      249             0.0000000000
     29502       249  POPC      H4S           -42.3365538749       34.6401176924      -11.1855217201  MEMB      249             0.0000000000
     29503       249  POPC      C25           -43.8324782810       33.1785272271      -10.7786123149  MEMB      249             0.0000000000
     29504       249  POPC      H5R           -43.1532251933       32.3943818513      -10.3810549149  MEMB      249             0.0000000000
     29505       249  POPC      H5S           -44.7800546502       32.7495559193      -11.1690017027  MEMB      249             0.0000000000
     29506       249  POPC      C26           -44.3568468998       34.0207157445       -9.6007267063  MEMB      249             0.0000000000
     29507       249  POPC      H6R           -45.2029645123       33.4335349475       -9.1840436753  MEMB      249             0.0000000000
     29508       249  POPC      H6S           -44.8284294760       34.9809733597       -9.9004536962  MEMB      249             0.0000000000
     29509       249  POPC      C27           -43.2624715200       34.4037412281       -8.5465274250  MEMB      249             0.0000000000
     29510       249  POPC      H7R           -42.4488980656       34.9324922804       -9.0876765846  MEMB      249             0.0000000000
     29511       249  POPC      H7S           -42.8203677870       33.4424527338       -8.2077217001  MEMB      249             0.0000000000
     29512       249  POPC      C28           -43.7579304308       35.2616818643       -7.3300024276  MEMB      249             0.0000000000
     29513       249  POPC      H8R           -44.2392470966       36.1332861496       -7.8229138180  MEMB      249             0.0000000000
     29514       249  POPC      H8S           -42.8545144711       35.6101435368       -6.7852683608  MEMB      249             0.0000000000
     29515       249  POPC      C29           -44.9497818692       34.6483167007       -6.5927118501  MEMB      249             0.0000000000
     29516       249  POPC      H91           -45.7473724573       34.2162611947       -7.2149469178  MEMB      249             0.0000000000
     29517       249  POPC      C210          -44.9590571956       34.3127847280       -5.2489397095  MEMB      249             0.0000000000
     29518       249  POPC      H101          -45.8826083997       33.9030629948       -4.8139916136  MEMB      249             0.0000000000
     29519       249  POPC      C211          -43.7645786707       34.5826030230       -4.3323680234  MEMB      249             0.0000000000
     29520       249  POPC      H11R          -42.8638741715       34.8429248684       -4.9284265751  MEMB      249             0.0000000000
     29521       249  POPC      H11S          -43.4028941645       33.6255408611       -3.8993127433  MEMB      249             0.0000000000
     29522       249  POPC      C212          -43.9426703700       35.6098176112       -3.2600383738  MEMB      249             0.0000000000
     29523       249  POPC      H12R          -44.7594394105       35.2311620884       -2.6090162954  MEMB      249             0.0000000000
     29524       249  POPC      H12S          -44.0618666107       36.5875018590       -3.7740871836  MEMB      249             0.0000000000
     29525       249  POPC      C213          -42.8102771297       35.8345101142       -2.2225539879  MEMB      249             0.0000000000
     29526       249  POPC      H13R          -43.0095184843       36.6997735776       -1.5547630586  MEMB      249             0.0000000000
     29527       249  POPC      H13S          -41.8647619577       36.0072276971       -2.7797693882  MEMB      249             0.0000000000
     29528       249  POPC      C214          -42.4600342531       34.5485125070       -1.3848565202  MEMB      249             0.0000000000
     29529       249  POPC      H14R          -41.6605931809       34.9284611068       -0.7133995759  MEMB      249             0.0000000000
     29530       249  POPC      H14S          -42.0230403144       33.7831808491       -2.0613356901  MEMB      249             0.0000000000
     29531       249  POPC      C215          -43.6591100850       33.9228065245       -0.6250392307  MEMB      249             0.0000000000
     29532       249  POPC      H15R          -44.3187841260       33.4245258476       -1.3672427692  MEMB      249             0.0000000000
     29533       249  POPC      H15S          -44.2241250125       34.7659642939       -0.1731945767  MEMB      249             0.0000000000
     29534       249  POPC      C216          -43.1946245308       32.9041700663        0.3846476524  MEMB      249             0.0000000000
     29535       249  POPC      H16R          -42.5099921683       32.2102182772       -0.1482983898  MEMB      249             0.0000000000
     29536       249  POPC      H16S          -44.0589104734       32.2489935501        0.6256332770  MEMB      249             0.0000000000
     29537       249  POPC      C217          -42.4687694799       33.4376293236        1.6095691680  MEMB      249             0.0000000000
     29538       249  POPC      H17R          -41.5980067940       34.0837729341        1.3675120484  MEMB      249             0.0000000000
     29539       249  POPC      H17S          -42.0308580023       32.5267133835        2.0708562158  MEMB      249             0.0000000000
     29540       249  POPC      C218          -43.3293008481       34.0523918832        2.7575033889  MEMB      249             0.0000000000
     29541       249  POPC      H18R          -44.1077244227       33.3078972197        3.0297293404  MEMB      249             0.0000000000
     29542       249  POPC      H18S          -43.7037290787       35.0061774552        2.3280662577  MEMB      249             0.0000000000
     29543       249  POPC      H18T          -42.6941190326       34.2849168113        3.6388651593  MEMB      249             0.0000000000
     29544       249  POPC      C33           -37.3612601932       31.3196284839      -13.1736589544  MEMB      249             0.0000000000
     29545       249  POPC      H3X           -38.3876923570       31.7298411760      -13.0619288177  MEMB      249             0.0000000000
     29546       249  POPC      H3Y           -36.7409326276       31.9708578859      -13.8258978629  MEMB      249             0.0000000000
     29547       249  POPC      C34           -36.9950007130       31.4338620498      -11.6686410183  MEMB      249             0.0000000000
     29548       249  POPC      H4X           -37.0053058784       32.4910857835      -11.3273310383  MEMB      249             0.0000000000
     29549       249  POPC      H4Y           -35.9615776876       31.0702485808      -11.4838624185  MEMB      249             0.0000000000
     29550       249  POPC      C35           -37.9178958723       30.7516677358      -10.6861314809  MEMB      249             0.0000000000
     29551       249  POPC      H5X           -37.8621310886       29.6464256953      -10.7843737670  MEMB      249             0.0000000000
     29552       249  POPC      H5Y           -38.9839005207       30.9770270301      -10.9033135888  MEMB      249             0.0000000000
     29553       249  POPC      C36           -37.5533804967       31.1995604909       -9.2192200459  MEMB      249             0.0000000000
     29554       249  POPC      H6X           -38.3925543606       30.9709283317       -8.5279638608  MEMB      249             0.0000000000
     29555       249  POPC      H6Y           -37.4551082549       32.3013221442       -9.3230687757  MEMB      249             0.0000000000
     29556       249  POPC      C37           -36.2362431561       30.7279098979       -8.6160289734  MEMB      249             0.0000000000
     29557       249  POPC      H7X           -35.3607877499       30.9754039052       -9.2537165661  MEMB      249             0.0000000000
     29558       249  POPC      H7Y           -36.2373137986       29.6242966709       -8.4881297302  MEMB      249             0.0000000000
     29559       249  POPC      C38           -36.0185214482       31.1875434638       -7.1871826809  MEMB      249             0.0000000000
     29560       249  POPC      H8X           -36.0914378673       32.2960630251       -7.2009237226  MEMB      249             0.0000000000
     29561       249  POPC      H8Y           -34.9780827341       30.9927223288       -6.8497615379  MEMB      249             0.0000000000
     29562       249  POPC      C39           -37.1149356397       30.6105515056       -6.2518727688  MEMB      249             0.0000000000
     29563       249  POPC      H9X           -37.1039563446       29.5046774465       -6.3579054543  MEMB      249             0.0000000000
     29564       249  POPC      H9Y           -38.0937054902       31.0825731412       -6.4832302031  MEMB      249             0.0000000000
     29565       249  POPC      C310          -36.6801732142       30.9354839883       -4.7315680250  MEMB      249             0.0000000000
     29566       249  POPC      H10X          -35.5942655096       30.7020519661       -4.7063611265  MEMB      249             0.0000000000
     29567       249  POPC      H10Y          -37.1241007253       30.2611563880       -3.9683304203  MEMB      249             0.0000000000
     29568       249  POPC      C311          -36.8761560253       32.3396532553       -4.0709807587  MEMB      249             0.0000000000
     29569       249  POPC      H11X          -36.4604814594       33.1171714748       -4.7469990815  MEMB      249             0.0000000000
     29570       249  POPC      H11Y          -36.3681165405       32.3231766425       -3.0830807281  MEMB      249             0.0000000000
     29571       249  POPC      C312          -38.3491662348       32.7702244727       -3.7904110151  MEMB      249             0.0000000000
     29572       249  POPC      H12X          -38.8633909814       32.1520343709       -3.0237721865  MEMB      249             0.0000000000
     29573       249  POPC      H12Y          -38.8820502944       32.5434048207       -4.7385188464  MEMB      249             0.0000000000
     29574       249  POPC      C313          -38.5593617816       34.1188884934       -3.1246527662  MEMB      249             0.0000000000
     29575       249  POPC      H13X          -38.3086624961       34.0524480030       -2.0443487060  MEMB      249             0.0000000000
     29576       249  POPC      H13Y          -39.6283618761       34.4188421155       -3.1644988800  MEMB      249             0.0000000000
     29577       249  POPC      C314          -37.8619039648       35.1961952180       -3.9630711634  MEMB      249             0.0000000000
     29578       249  POPC      H14X          -37.7194791382       34.9079989716       -5.0265458851  MEMB      249             0.0000000000
     29579       249  POPC      H14Y          -36.8846467381       35.3830703868       -3.4687360538  MEMB      249             0.0000000000
     29580       249  POPC      C315          -38.6206053470       36.5232165704       -3.9721500752  MEMB      249             0.0000000000
     29581       249  POPC      H15X          -39.6515123619       36.4002048780       -4.3676498791  MEMB      249             0.0000000000
     29582       249  POPC      H15Y          -38.1729293571       37.2209966666       -4.7117503647  MEMB      249             0.0000000000
     29583       249  POPC      C316          -38.6470076862       37.1887037822       -2.6003658939  MEMB      249             0.0000000000
     29584       249  POPC      H16X          -39.0482901251       38.2239652449       -2.6394397363  MEMB      249             0.0000000000
     29585       249  POPC      H16Y          -37.5957988432       37.2535064681       -2.2466968593  MEMB      249             0.0000000000
     29586       249  POPC      H16Z          -39.2517720531       36.5725439169       -1.9011327350  MEMB      249             0.0000000000
     29587       250  POPC      N              49.6587119255       17.2072077276      -19.7122933824  MEMB      250             0.0000000000
     29588       250  POPC      C12            48.7063590258       16.2470801715      -19.0280736786  MEMB      250             0.0000000000
     29589       250  POPC      H12A           47.6989614345       16.5049147347      -19.3197438310  MEMB      250             0.0000000000
     29590       250  POPC      H12B           48.7977195532       16.3973035095      -17.9624817355  MEMB      250             0.0000000000
     29591       250  POPC      C13            49.0490564536       18.6342366736      -19.6592966317  MEMB      250             0.0000000000
     29592       250  POPC      H13A           49.4933668683       19.2074155351      -20.4595802765  MEMB      250             0.0000000000
     29593       250  POPC      H13B           48.0087124013       18.5475659631      -19.9360139005  MEMB      250             0.0000000000
     29594       250  POPC      H13C           49.3268410648       19.1475550887      -18.7505945299  MEMB      250             0.0000000000
     29595       250  POPC      C14            51.0161619721       17.2531239751      -19.0091283053  MEMB      250             0.0000000000
     29596       250  POPC      H14A           51.4243611705       16.3299776489      -18.6249743981  MEMB      250             0.0000000000
     29597       250  POPC      H14B           51.8376369420       17.6409580611      -19.5932205261  MEMB      250             0.0000000000
     29598       250  POPC      H14C           50.9148091892       17.9711605579      -18.2087839051  MEMB      250             0.0000000000
     29599       250  POPC      C15            49.7237374084       16.8707131192      -21.1481435498  MEMB      250             0.0000000000
     29600       250  POPC      H15A           48.7827888395       17.1901316909      -21.5712128270  MEMB      250             0.0000000000
     29601       250  POPC      H15B           50.0937468132       15.8679806600      -21.3031292303  MEMB      250             0.0000000000
     29602       250  POPC      H15C           50.4759385197       17.4266235114      -21.6881038325  MEMB      250             0.0000000000
     29603       250  POPC      C11            48.9848582468       14.7292094557      -19.2547887962  MEMB      250             0.0000000000
     29604       250  POPC      H11A           49.0518211215       14.4517356260      -20.3284950681  MEMB      250             0.0000000000
     29605       250  POPC      H11B           48.0324419062       14.2841288547      -18.8954460894  MEMB      250             0.0000000000
     29606       250  POPC      P              50.3637155831       12.8722282515      -18.1987506720  MEMB      250             0.0000000000
     29607       250  POPC      O13            49.7431717270       11.9714772569      -19.1552622266  MEMB      250             0.0000000000
     29608       250  POPC      O14            50.0783146303       12.7455697485      -16.7165231251  MEMB      250             0.0000000000
     29609       250  POPC      O12            50.1420468168       14.3592797767      -18.5740400301  MEMB      250             0.0000000000
     29610       250  POPC      O11            51.9080465473       12.8109599247      -18.5436996082  MEMB      250             0.0000000000
     29611       250  POPC      C1             52.7869705778       13.8905286069      -18.1154659068  MEMB      250             0.0000000000
     29612       250  POPC      HA             52.3725599835       14.4720537535      -17.2643411877  MEMB      250             0.0000000000
     29613       250  POPC      HB             52.9122742075       14.6324872318      -18.9328504171  MEMB      250             0.0000000000
     29614       250  POPC      C2             54.1227376439       13.2741314474      -17.6371204063  MEMB      250             0.0000000000
     29615       250  POPC      HS             54.4263961705       12.6011675695      -18.4673204091  MEMB      250             0.0000000000
     29616       250  POPC      O21            53.9560958580       12.4871586386      -16.4600854591  MEMB      250             0.0000000000
     29617       250  POPC      C21            53.7920983483       11.1703472726      -16.5420933278  MEMB      250             0.0000000000
     29618       250  POPC      O22            53.6896174468       10.5390226134      -17.5693775654  MEMB      250             0.0000000000
     29619       250  POPC      C22            53.6754987827       10.6126026679      -15.2174082834  MEMB      250             0.0000000000
     29620       250  POPC      H2R            54.6230392097       10.7641604474      -14.6574812277  MEMB      250             0.0000000000
     29621       250  POPC      H2S            53.4517761100        9.5297197173      -15.3252665924  MEMB      250             0.0000000000
     29622       250  POPC      C3             55.2913171970       14.2963192925      -17.3167567726  MEMB      250             0.0000000000
     29623       250  POPC      HX             55.7165446582       14.7581343963      -18.2333969154  MEMB      250             0.0000000000
     29624       250  POPC      HY             56.0320534543       13.6475541309      -16.8022332259  MEMB      250             0.0000000000
     29625       250  POPC      O31            54.7003920061       15.3992232679      -16.5732837307  MEMB      250             0.0000000000
     29626       250  POPC      C31            54.6652170903       15.3150765095      -15.2802815777  MEMB      250             0.0000000000
     29627       250  POPC      O32            55.3810799242       14.6960076767      -14.5366041018  MEMB      250             0.0000000000
     29628       250  POPC      C32            53.5678454389       16.3033256553      -14.7784924936  MEMB      250             0.0000000000
     29629       250  POPC      H2X            52.6120744526       15.8780607469      -15.1526222346  MEMB      250             0.0000000000
     29630       250  POPC      H2Y            53.8309180433       17.2682802098      -15.2622037998  MEMB      250             0.0000000000
     29631       250  POPC      C23            52.6445873839       11.3826639186      -14.4247951539  MEMB      250             0.0000000000
     29632       250  POPC      H3R            51.6796990376       11.3794106027      -14.9755225472  MEMB      250             0.0000000000
     29633       250  POPC      H3S            52.8826163672       12.4542411251      -14.2533726128  MEMB      250             0.0000000000
     29634       250  POPC      C24            52.1861131720       10.7286981499      -13.0470550931  MEMB      250             0.0000000000
     29635       250  POPC      H4R            53.0169921351       10.3024723519      -12.4451477893  MEMB      250             0.0000000000
     29636       250  POPC      H4S            51.5669004573        9.8116521529      -13.1466680393  MEMB      250             0.0000000000
     29637       250  POPC      C25            51.5387589990       11.6934570928      -12.1320269729  MEMB      250             0.0000000000
     29638       250  POPC      H5R            52.2886664527       12.5107454795      -12.0687852889  MEMB      250             0.0000000000
     29639       250  POPC      H5S            51.4998205438       11.1863646330      -11.1442707541  MEMB      250             0.0000000000
     29640       250  POPC      C26            50.1053753535       12.1236716640      -12.4903478058  MEMB      250             0.0000000000
     29641       250  POPC      H6R            49.4300096275       11.2415274589      -12.4854797269  MEMB      250             0.0000000000
     29642       250  POPC      H6S            50.1090184716       12.5650411005      -13.5099067188  MEMB      250             0.0000000000
     29643       250  POPC      C27            49.5493626919       13.2150298630      -11.5042686202  MEMB      250             0.0000000000
     29644       250  POPC      H7R            48.5398599571       13.5507121588      -11.8244910900  MEMB      250             0.0000000000
     29645       250  POPC      H7S            50.1876993587       14.1063269090      -11.6843708867  MEMB      250             0.0000000000
     29646       250  POPC      C28            49.4977272047       12.8572532028      -10.0634029373  MEMB      250             0.0000000000
     29647       250  POPC      H8R            49.0297664933       13.7695304676       -9.6355199717  MEMB      250             0.0000000000
     29648       250  POPC      H8S            50.5586308093       12.8199177363       -9.7356669360  MEMB      250             0.0000000000
     29649       250  POPC      C29            48.6606071137       11.6018347458       -9.7063185880  MEMB      250             0.0000000000
     29650       250  POPC      H91            47.6429124793       11.7733768086      -10.0869369889  MEMB      250             0.0000000000
     29651       250  POPC      C210           49.0141358673       10.4600639620       -9.0513908865  MEMB      250             0.0000000000
     29652       250  POPC      H101           48.2549796179        9.6689458629       -8.9629919748  MEMB      250             0.0000000000
     29653       250  POPC      C211           50.3802770267       10.0773831077       -8.5111364227  MEMB      250             0.0000000000
     29654       250  POPC      H11R           51.0890563410        9.7769792307       -9.3122053054  MEMB      250             0.0000000000
     29655       250  POPC      H11S           50.2307923148        9.1534282874       -7.9125699759  MEMB      250             0.0000000000
     29656       250  POPC      C212           50.9789244545       11.0420126568       -7.4584435460  MEMB      250             0.0000000000
     29657       250  POPC      H12R           50.2591811422       11.2813864156       -6.6466617502  MEMB      250             0.0000000000
     29658       250  POPC      H12S           51.4271855572       11.9390647979       -7.9366491905  MEMB      250             0.0000000000
     29659       250  POPC      C213           52.1976809412       10.2866028839       -6.7821812112  MEMB      250             0.0000000000
     29660       250  POPC      H13R           53.0661268684       10.1962273957       -7.4691710640  MEMB      250             0.0000000000
     29661       250  POPC      H13S           51.8258484644        9.2655368299       -6.5509125662  MEMB      250             0.0000000000
     29662       250  POPC      C214           52.7405928903       11.0915238185       -5.6585848199  MEMB      250             0.0000000000
     29663       250  POPC      H14R           51.9430454336       11.5253177259       -5.0182238972  MEMB      250             0.0000000000
     29664       250  POPC      H14S           53.3265535707       11.9438066495       -6.0642760334  MEMB      250             0.0000000000
     29665       250  POPC      C215           53.5441634858       10.3492665212       -4.6543317755  MEMB      250             0.0000000000
     29666       250  POPC      H15R           54.3677354740        9.7533765141       -5.1026235522  MEMB      250             0.0000000000
     29667       250  POPC      H15S           52.8776571343        9.6032525875       -4.1710578453  MEMB      250             0.0000000000
     29668       250  POPC      C216           53.9804764293       11.1261001824       -3.4225917498  MEMB      250             0.0000000000
     29669       250  POPC      H16R           54.6419621078       10.3709965766       -2.9465924236  MEMB      250             0.0000000000
     29670       250  POPC      H16S           53.1101031184       11.3258578061       -2.7616312141  MEMB      250             0.0000000000
     29671       250  POPC      C217           54.6183108005       12.5111472743       -3.6843466342  MEMB      250             0.0000000000
     29672       250  POPC      H17R           53.9750509997       13.0670293944       -4.3995615755  MEMB      250             0.0000000000
     29673       250  POPC      H17S           55.5464132625       12.2280619563       -4.2254649785  MEMB      250             0.0000000000
     29674       250  POPC      C218           54.9735973390       13.3547775457       -2.4435273422  MEMB      250             0.0000000000
     29675       250  POPC      H18R           55.2194532040       14.4193365267       -2.6449979791  MEMB      250             0.0000000000
     29676       250  POPC      H18S           55.9023706933       12.9192615010       -2.0168829452  MEMB      250             0.0000000000
     29677       250  POPC      H18T           54.0866670550       13.2458732799       -1.7833645946  MEMB      250             0.0000000000
     29678       250  POPC      C33            53.5510841791       16.4619534579      -13.3092219290  MEMB      250             0.0000000000
     29679       250  POPC      H3X            53.0484236976       17.4409280059      -13.1567023580  MEMB      250             0.0000000000
     29680       250  POPC      H3Y            54.5750232842       16.4605048930      -12.8780982104  MEMB      250             0.0000000000
     29681       250  POPC      C34            52.7040156088       15.3309820317      -12.5951855506  MEMB      250             0.0000000000
     29682       250  POPC      H4X            53.1298876150       14.3416592356      -12.8675718853  MEMB      250             0.0000000000
     29683       250  POPC      H4Y            51.6510607330       15.3526071239      -12.9489356379  MEMB      250             0.0000000000
     29684       250  POPC      C35            52.7798310378       15.4154722440      -11.0474676319  MEMB      250             0.0000000000
     29685       250  POPC      H5X            53.7849256557       15.7190389962      -10.6842140340  MEMB      250             0.0000000000
     29686       250  POPC      H5Y            52.7172973943       14.3682750469      -10.6816963331  MEMB      250             0.0000000000
     29687       250  POPC      C36            51.7859961629       16.2645191360      -10.3637794569  MEMB      250             0.0000000000
     29688       250  POPC      H6X            51.0850530660       15.5552461611       -9.8739509575  MEMB      250             0.0000000000
     29689       250  POPC      H6Y            51.2248701562       16.7827723958      -11.1705458826  MEMB      250             0.0000000000
     29690       250  POPC      C37            52.2958126781       17.3592803466       -9.4445086209  MEMB      250             0.0000000000
     29691       250  POPC      H7X            51.4155246073       17.9916155544       -9.2004465757  MEMB      250             0.0000000000
     29692       250  POPC      H7Y            52.9977732349       17.9146702666      -10.1026226343  MEMB      250             0.0000000000
     29693       250  POPC      C38            52.7948476418       17.0202305028       -8.0172283131  MEMB      250             0.0000000000
     29694       250  POPC      H8X            53.2165967340       17.9707773755       -7.6261921090  MEMB      250             0.0000000000
     29695       250  POPC      H8Y            53.5562317960       16.2526209355       -8.2729444266  MEMB      250             0.0000000000
     29696       250  POPC      C39            51.6369190293       16.4299948760       -7.0635602626  MEMB      250             0.0000000000
     29697       250  POPC      H9X            51.9938441231       16.1239073612       -6.0569641393  MEMB      250             0.0000000000
     29698       250  POPC      H9Y            51.1084742629       15.6299213052       -7.6247638083  MEMB      250             0.0000000000
     29699       250  POPC      C310           50.4978298855       17.3701954930       -6.6832233236  MEMB      250             0.0000000000
     29700       250  POPC      H10X           50.1741093957       17.6934106164       -7.6956744053  MEMB      250             0.0000000000
     29701       250  POPC      H10Y           50.7867518731       18.3419052367       -6.2286629564  MEMB      250             0.0000000000
     29702       250  POPC      C311           49.3219269548       16.6934749621       -5.8375317456  MEMB      250             0.0000000000
     29703       250  POPC      H11X           49.2803349922       15.5905829532       -5.9648912272  MEMB      250             0.0000000000
     29704       250  POPC      H11Y           48.4168949919       17.0975085782       -6.3395234289  MEMB      250             0.0000000000
     29705       250  POPC      C312           49.2517370944       17.0871292325       -4.3323956229  MEMB      250             0.0000000000
     29706       250  POPC      H12X           48.4770454709       16.5105001741       -3.7831481105  MEMB      250             0.0000000000
     29707       250  POPC      H12Y           49.0395314386       18.1642616869       -4.5029107982  MEMB      250             0.0000000000
     29708       250  POPC      C313           50.5675997933       16.9062037842       -3.5250542993  MEMB      250             0.0000000000
     29709       250  POPC      H13X           51.5227275231       17.1676638994       -4.0287313341  MEMB      250             0.0000000000
     29710       250  POPC      H13Y           50.6281108631       15.8597762577       -3.1567492100  MEMB      250             0.0000000000
     29711       250  POPC      C314           50.5537037800       17.8024876430       -2.2561809309  MEMB      250             0.0000000000
     29712       250  POPC      H14X           49.7534960194       17.3621773737       -1.6236344515  MEMB      250             0.0000000000
     29713       250  POPC      H14Y           50.2887653645       18.8569748290       -2.4846225189  MEMB      250             0.0000000000
     29714       250  POPC      C315           51.8680328315       17.8124137347       -1.5281103890  MEMB      250             0.0000000000
     29715       250  POPC      H15X           51.8060218060       18.4831757310       -0.6446213565  MEMB      250             0.0000000000
     29716       250  POPC      H15Y           52.5809666742       18.3519663597       -2.1876028180  MEMB      250             0.0000000000
     29717       250  POPC      C316           52.5382733203       16.5147270029       -1.0851492391  MEMB      250             0.0000000000
     29718       250  POPC      H16X           53.2970954390       16.7412784934       -0.3059290327  MEMB      250             0.0000000000
     29719       250  POPC      H16Y           53.0588182338       16.0398671439       -1.9441371766  MEMB      250             0.0000000000
     29720       250  POPC      H16Z           51.8010016739       15.8405344053       -0.5991281678  MEMB      250             0.0000000000
     29721       251  POPC      N             -25.0667848692       41.8226832414      -20.1890970711  MEMB      251             0.0000000000
     29722       251  POPC      C12           -25.7612548146       43.0709976831      -20.5006093157  MEMB      251             0.0000000000
     29723       251  POPC      H12A          -26.8039507574       42.8426395370      -20.3361776297  MEMB      251             0.0000000000
     29724       251  POPC      H12B          -25.5691245426       43.1726607476      -21.5585085094  MEMB      251             0.0000000000
     29725       251  POPC      C13           -25.7538567245       40.6901757655      -20.9270728697  MEMB      251             0.0000000000
     29726       251  POPC      H13A          -26.7707519800       40.6794449383      -20.5634674453  MEMB      251             0.0000000000
     29727       251  POPC      H13B          -25.7569085471       41.0430145789      -21.9478057007  MEMB      251             0.0000000000
     29728       251  POPC      H13C          -25.1687869988       39.7975366301      -20.7618793376  MEMB      251             0.0000000000
     29729       251  POPC      C14           -23.6163943538       41.8916351535      -20.6528125752  MEMB      251             0.0000000000
     29730       251  POPC      H14A          -23.4592228907       41.9856780167      -21.7171681497  MEMB      251             0.0000000000
     29731       251  POPC      H14B          -23.1347905926       42.7472810923      -20.2030037553  MEMB      251             0.0000000000
     29732       251  POPC      H14C          -23.0192947998       41.0493402557      -20.3359350906  MEMB      251             0.0000000000
     29733       251  POPC      C15           -25.0883675191       41.4206970104      -18.7020796089  MEMB      251             0.0000000000
     29734       251  POPC      H15A          -24.4737509257       40.5562264060      -18.4987646716  MEMB      251             0.0000000000
     29735       251  POPC      H15B          -26.1217019170       41.2239757371      -18.4572927312  MEMB      251             0.0000000000
     29736       251  POPC      H15C          -24.8410933365       42.3274842092      -18.1701091794  MEMB      251             0.0000000000
     29737       251  POPC      C11           -25.3014386277       44.2864485659      -19.7647689126  MEMB      251             0.0000000000
     29738       251  POPC      H11A          -25.7939709582       45.1161663121      -20.3154969243  MEMB      251             0.0000000000
     29739       251  POPC      H11B          -24.1967631108       44.2898883088      -19.8830954259  MEMB      251             0.0000000000
     29740       251  POPC      P             -25.7900843018       45.7597061551      -17.7017618213  MEMB      251             0.0000000000
     29741       251  POPC      O13           -27.1534158950       46.3356611667      -17.8927718450  MEMB      251             0.0000000000
     29742       251  POPC      O14           -24.5983373354       46.5856085528      -18.0968950027  MEMB      251             0.0000000000
     29743       251  POPC      O12           -25.7922444774       44.3417952034      -18.3903067036  MEMB      251             0.0000000000
     29744       251  POPC      O11           -25.6470681814       45.4263959902      -16.1818242691  MEMB      251             0.0000000000
     29745       251  POPC      C1            -24.4505019725       44.9154910738      -15.6490497526  MEMB      251             0.0000000000
     29746       251  POPC      HA            -24.1241845925       45.4219376681      -14.7155883971  MEMB      251             0.0000000000
     29747       251  POPC      HB            -23.5971799070       44.9305588994      -16.3603410309  MEMB      251             0.0000000000
     29748       251  POPC      C2            -24.5936740859       43.4019192957      -15.3672664760  MEMB      251             0.0000000000
     29749       251  POPC      HS            -25.0968782301       42.9029684500      -16.2229267617  MEMB      251             0.0000000000
     29750       251  POPC      O21           -25.5176233829       43.3900978216      -14.2127663033  MEMB      251             0.0000000000
     29751       251  POPC      C21           -26.2471990077       42.2525386229      -14.1389490398  MEMB      251             0.0000000000
     29752       251  POPC      O22           -26.4204204938       41.4516310055      -15.0316680080  MEMB      251             0.0000000000
     29753       251  POPC      C22           -26.9185727849       42.0402905166      -12.7552764150  MEMB      251             0.0000000000
     29754       251  POPC      H2R           -27.9275383273       42.4712219574      -12.9302267946  MEMB      251             0.0000000000
     29755       251  POPC      H2S           -26.3068660083       42.6488633477      -12.0554369165  MEMB      251             0.0000000000
     29756       251  POPC      C3            -23.1833194972       42.6783090328      -14.9848678600  MEMB      251             0.0000000000
     29757       251  POPC      HX            -22.5194863171       42.9818426517      -15.8224322519  MEMB      251             0.0000000000
     29758       251  POPC      HY            -23.2702454658       41.5786528903      -14.8525006530  MEMB      251             0.0000000000
     29759       251  POPC      O31           -22.7911688003       43.3146934982      -13.7424532187  MEMB      251             0.0000000000
     29760       251  POPC      C31           -21.8604471350       42.8567802013      -13.0158362938  MEMB      251             0.0000000000
     29761       251  POPC      O32           -21.3534857271       41.7826032696      -13.1468326105  MEMB      251             0.0000000000
     29762       251  POPC      C32           -21.6494255996       43.8412619413      -11.8247506377  MEMB      251             0.0000000000
     29763       251  POPC      H2X           -22.0782555329       44.8208900097      -12.1260062261  MEMB      251             0.0000000000
     29764       251  POPC      H2Y           -20.6026711524       44.0822372238      -11.5409252753  MEMB      251             0.0000000000
     29765       251  POPC      C23           -27.0234195893       40.5736985031      -12.3864378790  MEMB      251             0.0000000000
     29766       251  POPC      H3R           -27.3606162146       39.9664496873      -13.2535412568  MEMB      251             0.0000000000
     29767       251  POPC      H3S           -27.8871171832       40.4732391690      -11.6948778022  MEMB      251             0.0000000000
     29768       251  POPC      C24           -25.8159469669       39.9707900749      -11.7431386903  MEMB      251             0.0000000000
     29769       251  POPC      H4R           -24.8927705396       40.3551465876      -12.2272220899  MEMB      251             0.0000000000
     29770       251  POPC      H4S           -25.8561662620       38.8700758150      -11.8885036537  MEMB      251             0.0000000000
     29771       251  POPC      C25           -25.8699453164       40.1456469399      -10.2135071722  MEMB      251             0.0000000000
     29772       251  POPC      H5R           -26.9041322841       39.9986594507       -9.8351258197  MEMB      251             0.0000000000
     29773       251  POPC      H5S           -25.6071464218       41.1896706186       -9.9391496067  MEMB      251             0.0000000000
     29774       251  POPC      C26           -24.9129583114       39.2502193067       -9.3658421611  MEMB      251             0.0000000000
     29775       251  POPC      H6R           -23.8432362954       39.3610671320       -9.6446394861  MEMB      251             0.0000000000
     29776       251  POPC      H6S           -25.1602988619       38.2043136978       -9.6473124866  MEMB      251             0.0000000000
     29777       251  POPC      C27           -24.9978080348       39.4922293244       -7.8475841850  MEMB      251             0.0000000000
     29778       251  POPC      H7R           -26.0687162006       39.6989027044       -7.6360123843  MEMB      251             0.0000000000
     29779       251  POPC      H7S           -24.6301902192       40.4739666802       -7.4796584685  MEMB      251             0.0000000000
     29780       251  POPC      C28           -24.4107081388       38.3893957689       -6.9652244612  MEMB      251             0.0000000000
     29781       251  POPC      H8R           -23.3730407352       38.2705121183       -7.3439518827  MEMB      251             0.0000000000
     29782       251  POPC      H8S           -24.9486489355       37.4724285122       -7.2878888010  MEMB      251             0.0000000000
     29783       251  POPC      C29           -24.2232950630       38.3901674563       -5.4848587494  MEMB      251             0.0000000000
     29784       251  POPC      H91           -23.1994509158       38.2730359022       -5.1001205116  MEMB      251             0.0000000000
     29785       251  POPC      C210          -25.1911819287       38.4709096865       -4.5603086444  MEMB      251             0.0000000000
     29786       251  POPC      H101          -24.9805218471       38.3172296189       -3.4916622197  MEMB      251             0.0000000000
     29787       251  POPC      C211          -26.6611316827       38.5831284675       -4.8370209025  MEMB      251             0.0000000000
     29788       251  POPC      H11R          -27.1424637455       37.7307943365       -4.3115053182  MEMB      251             0.0000000000
     29789       251  POPC      H11S          -27.0157342273       38.5028912256       -5.8868495584  MEMB      251             0.0000000000
     29790       251  POPC      C212          -27.4858446333       39.7684923842       -4.3946742714  MEMB      251             0.0000000000
     29791       251  POPC      H12R          -28.5449608201       39.5398728748       -4.6402893462  MEMB      251             0.0000000000
     29792       251  POPC      H12S          -27.0483049851       40.6614473714       -4.8901657232  MEMB      251             0.0000000000
     29793       251  POPC      C213          -27.2320383313       40.1123318628       -2.8965857743  MEMB      251             0.0000000000
     29794       251  POPC      H13R          -26.1319098087       40.2200813944       -2.7851040398  MEMB      251             0.0000000000
     29795       251  POPC      H13S          -27.5133537408       39.2719089522       -2.2266071240  MEMB      251             0.0000000000
     29796       251  POPC      C214          -27.9871441709       41.3554159511       -2.2776543133  MEMB      251             0.0000000000
     29797       251  POPC      H14R          -29.0828391944       41.1942566820       -2.3659796811  MEMB      251             0.0000000000
     29798       251  POPC      H14S          -27.7366760277       42.2720714770       -2.8532669954  MEMB      251             0.0000000000
     29799       251  POPC      C215          -27.6482694916       41.6179675086       -0.7831805687  MEMB      251             0.0000000000
     29800       251  POPC      H15R          -26.8044726271       42.3406859495       -0.7855924872  MEMB      251             0.0000000000
     29801       251  POPC      H15S          -27.5117751514       40.7263921673       -0.1345011783  MEMB      251             0.0000000000
     29802       251  POPC      C216          -28.7718182625       42.3462664069       -0.0198951960  MEMB      251             0.0000000000
     29803       251  POPC      H16R          -29.6211290283       41.6478216472        0.1387450265  MEMB      251             0.0000000000
     29804       251  POPC      H16S          -28.9827224110       43.2396251314       -0.6457951886  MEMB      251             0.0000000000
     29805       251  POPC      C217          -28.4990695685       42.9021961545        1.3432217051  MEMB      251             0.0000000000
     29806       251  POPC      H17R          -28.4133340627       42.0268403267        2.0219863610  MEMB      251             0.0000000000
     29807       251  POPC      H17S          -29.4571519156       43.3747737913        1.6482941323  MEMB      251             0.0000000000
     29808       251  POPC      C218          -27.2711206895       43.8128570382        1.4044894203  MEMB      251             0.0000000000
     29809       251  POPC      H18R          -27.3535396398       44.6401748388        2.1414244973  MEMB      251             0.0000000000
     29810       251  POPC      H18S          -27.1968878356       44.3692041660        0.4456932126  MEMB      251             0.0000000000
     29811       251  POPC      H18T          -26.3043243371       43.2706982688        1.3290586884  MEMB      251             0.0000000000
     29812       251  POPC      C33           -22.2875761706       43.2117974928      -10.5337525003  MEMB      251             0.0000000000
     29813       251  POPC      H3X           -21.6843741852       42.2914406603      -10.3807439263  MEMB      251             0.0000000000
     29814       251  POPC      H3Y           -23.3689110870       42.9747623347      -10.6278260269  MEMB      251             0.0000000000
     29815       251  POPC      C34           -22.0472710367       44.0311416128       -9.3339255285  MEMB      251             0.0000000000
     29816       251  POPC      H4X           -22.7132271802       44.9196658210       -9.3706396359  MEMB      251             0.0000000000
     29817       251  POPC      H4Y           -20.9698535229       44.2947978400       -9.3969959243  MEMB      251             0.0000000000
     29818       251  POPC      C35           -22.3378822741       43.2460697354       -8.0655196589  MEMB      251             0.0000000000
     29819       251  POPC      H5X           -21.7210818890       42.3444787712       -8.2680328100  MEMB      251             0.0000000000
     29820       251  POPC      H5Y           -23.4243135979       43.0137188962       -8.0645835018  MEMB      251             0.0000000000
     29821       251  POPC      C36           -22.1041978014       43.9973108992       -6.7716074667  MEMB      251             0.0000000000
     29822       251  POPC      H6X           -22.4922447253       45.0381690000       -6.7904348321  MEMB      251             0.0000000000
     29823       251  POPC      H6Y           -21.0062695955       44.1486248316       -6.6942845894  MEMB      251             0.0000000000
     29824       251  POPC      C37           -22.6328936464       43.3979792871       -5.4508206401  MEMB      251             0.0000000000
     29825       251  POPC      H7X           -22.5608963757       44.1692869131       -4.6544405755  MEMB      251             0.0000000000
     29826       251  POPC      H7Y           -21.9449490729       42.5902946200       -5.1211252930  MEMB      251             0.0000000000
     29827       251  POPC      C38           -24.1537852599       43.1006131016       -5.3988536227  MEMB      251             0.0000000000
     29828       251  POPC      H8X           -24.4083669454       42.8158527927       -4.3555799239  MEMB      251             0.0000000000
     29829       251  POPC      H8Y           -24.3012217436       42.2024436684       -6.0359374118  MEMB      251             0.0000000000
     29830       251  POPC      C39           -25.1872851890       44.1606930547       -5.8710421163  MEMB      251             0.0000000000
     29831       251  POPC      H9X           -26.1764244043       43.6595380624       -5.9400949336  MEMB      251             0.0000000000
     29832       251  POPC      H9Y           -24.8352851994       44.5316151869       -6.8573660827  MEMB      251             0.0000000000
     29833       251  POPC      C310          -25.2752148164       45.4021104918       -4.9239365097  MEMB      251             0.0000000000
     29834       251  POPC      H10X          -25.8991794211       46.1610856958       -5.4425354470  MEMB      251             0.0000000000
     29835       251  POPC      H10Y          -24.2793875517       45.8889904501       -4.8491244072  MEMB      251             0.0000000000
     29836       251  POPC      C311          -25.9770125255       45.2344929962       -3.6190202809  MEMB      251             0.0000000000
     29837       251  POPC      H11X          -25.6596694202       44.3085658727       -3.0934028135  MEMB      251             0.0000000000
     29838       251  POPC      H11Y          -26.9772481950       44.8627829923       -3.9283444074  MEMB      251             0.0000000000
     29839       251  POPC      C312          -26.0679973667       46.3883025396       -2.6273092132  MEMB      251             0.0000000000
     29840       251  POPC      H12X          -26.4742146209       46.1968218839       -1.6111186279  MEMB      251             0.0000000000
     29841       251  POPC      H12Y          -26.8484773632       47.0926770985       -2.9865139895  MEMB      251             0.0000000000
     29842       251  POPC      C313          -24.8484022097       47.1459596410       -2.4915812476  MEMB      251             0.0000000000
     29843       251  POPC      H13X          -24.9695890857       48.1420913158       -2.0147620490  MEMB      251             0.0000000000
     29844       251  POPC      H13Y          -24.2397450653       47.2712730530       -3.4125343754  MEMB      251             0.0000000000
     29845       251  POPC      C314          -23.8838316131       46.5805136153       -1.3667920699  MEMB      251             0.0000000000
     29846       251  POPC      H14X          -23.0253355370       47.2766732950       -1.2542404712  MEMB      251             0.0000000000
     29847       251  POPC      H14Y          -23.4848467646       45.5700286440       -1.5992830144  MEMB      251             0.0000000000
     29848       251  POPC      C315          -24.5296828502       46.1790096981       -0.0677768160  MEMB      251             0.0000000000
     29849       251  POPC      H15X          -25.2493534091       45.3549114100       -0.2607977888  MEMB      251             0.0000000000
     29850       251  POPC      H15Y          -25.1090897519       47.0019807919        0.4026788503  MEMB      251             0.0000000000
     29851       251  POPC      C316          -23.6369590111       45.7298546869        1.0216621267  MEMB      251             0.0000000000
     29852       251  POPC      H16X          -24.2254975704       45.5686143891        1.9500724223  MEMB      251             0.0000000000
     29853       251  POPC      H16Y          -22.9307759559       46.5676069212        1.2055034701  MEMB      251             0.0000000000
     29854       251  POPC      H16Z          -23.0652561110       44.8224281706        0.7317416060  MEMB      251             0.0000000000
     29855       252  POPC      N             -38.2486701569      -33.3118944671      -18.9098668428  MEMB      252             0.0000000000
     29856       252  POPC      C12           -39.1954902854      -33.4347547514      -20.0404265672  MEMB      252             0.0000000000
     29857       252  POPC      H12A          -39.6541350405      -34.4121235951      -20.0686240879  MEMB      252             0.0000000000
     29858       252  POPC      H12B          -38.5946124214      -33.3070169843      -20.9286996662  MEMB      252             0.0000000000
     29859       252  POPC      C13           -39.0010185399      -33.6162337714      -17.6537689814  MEMB      252             0.0000000000
     29860       252  POPC      H13A          -38.2471343056      -33.6091871380      -16.8804587934  MEMB      252             0.0000000000
     29861       252  POPC      H13B          -39.8518433387      -32.9530285067      -17.6022328665  MEMB      252             0.0000000000
     29862       252  POPC      H13C          -39.3865294274      -34.6248744418      -17.6743926710  MEMB      252             0.0000000000
     29863       252  POPC      C14           -37.1540022464      -34.3654513129      -18.9651952485  MEMB      252             0.0000000000
     29864       252  POPC      H14A          -37.6292819893      -35.3016784476      -19.2181534960  MEMB      252             0.0000000000
     29865       252  POPC      H14B          -36.4353544097      -34.1675592741      -19.7467220992  MEMB      252             0.0000000000
     29866       252  POPC      H14C          -36.7310557408      -34.4968327368      -17.9801799499  MEMB      252             0.0000000000
     29867       252  POPC      C15           -37.5654795325      -31.9819256318      -18.8499644809  MEMB      252             0.0000000000
     29868       252  POPC      H15A          -38.2403567979      -31.1590460286      -19.0338398890  MEMB      252             0.0000000000
     29869       252  POPC      H15B          -36.6940338707      -32.0601535394      -19.4831017147  MEMB      252             0.0000000000
     29870       252  POPC      H15C          -37.2019033122      -31.7062567508      -17.8710779153  MEMB      252             0.0000000000
     29871       252  POPC      C11           -40.2347168599      -32.2140377748      -20.1475855183  MEMB      252             0.0000000000
     29872       252  POPC      H11A          -40.7225979621      -32.2707816811      -21.1441161103  MEMB      252             0.0000000000
     29873       252  POPC      H11B          -39.6308506187      -31.2875930811      -20.2542001429  MEMB      252             0.0000000000
     29874       252  POPC      P             -42.4605827964      -32.8419948755      -18.9169328886  MEMB      252             0.0000000000
     29875       252  POPC      O13           -42.3908346658      -33.9466510103      -17.9366599025  MEMB      252             0.0000000000
     29876       252  POPC      O14           -43.0751350838      -33.1217762025      -20.2248309918  MEMB      252             0.0000000000
     29877       252  POPC      O12           -41.0861445073      -32.0831941947      -19.0434358599  MEMB      252             0.0000000000
     29878       252  POPC      O11           -43.4259947213      -31.7359006108      -18.3113327234  MEMB      252             0.0000000000
     29879       252  POPC      C1            -42.8606578629      -30.9743302724      -17.1989050969  MEMB      252             0.0000000000
     29880       252  POPC      HA            -43.4136767724      -30.0130596749      -17.2656113156  MEMB      252             0.0000000000
     29881       252  POPC      HB            -41.7651384352      -30.7942714809      -17.2405834534  MEMB      252             0.0000000000
     29882       252  POPC      C2            -43.2143809524      -31.5524721838      -15.7943719655  MEMB      252             0.0000000000
     29883       252  POPC      HS            -43.1977301860      -30.7113657110      -15.0687111535  MEMB      252             0.0000000000
     29884       252  POPC      O21           -42.3018911669      -32.5882303543      -15.5302273201  MEMB      252             0.0000000000
     29885       252  POPC      C21           -41.5436905579      -32.5060630397      -14.4638721811  MEMB      252             0.0000000000
     29886       252  POPC      O22           -41.4208952680      -31.5329128207      -13.7068786351  MEMB      252             0.0000000000
     29887       252  POPC      C22           -40.8306786878      -33.7378571488      -14.1520292500  MEMB      252             0.0000000000
     29888       252  POPC      H2R           -39.7624904027      -33.6314321680      -13.8657277331  MEMB      252             0.0000000000
     29889       252  POPC      H2S           -40.7549193926      -34.3211875906      -15.0945295965  MEMB      252             0.0000000000
     29890       252  POPC      C3            -44.7001271378      -32.0715157251      -15.6245511435  MEMB      252             0.0000000000
     29891       252  POPC      HX            -44.8881503848      -32.7052644018      -16.5174850655  MEMB      252             0.0000000000
     29892       252  POPC      HY            -45.5009967934      -31.3194034227      -15.7896453919  MEMB      252             0.0000000000
     29893       252  POPC      O31           -44.7691928864      -32.7444644361      -14.3803289594  MEMB      252             0.0000000000
     29894       252  POPC      C31           -45.2190371352      -32.1172899445      -13.3194502586  MEMB      252             0.0000000000
     29895       252  POPC      O32           -45.7823977669      -31.0487832891      -13.2829352994  MEMB      252             0.0000000000
     29896       252  POPC      C32           -44.9084681589      -32.9441997856      -12.0511684920  MEMB      252             0.0000000000
     29897       252  POPC      H2X           -43.8120236237      -33.0728721527      -11.9263740514  MEMB      252             0.0000000000
     29898       252  POPC      H2Y           -45.3259419845      -33.9202501616      -12.3788305937  MEMB      252             0.0000000000
     29899       252  POPC      C23           -41.5362992962      -34.6297185772      -13.1208914582  MEMB      252             0.0000000000
     29900       252  POPC      H3R           -42.5737690819      -34.8045316465      -13.4778476954  MEMB      252             0.0000000000
     29901       252  POPC      H3S           -41.4710181004      -34.1464206544      -12.1226514795  MEMB      252             0.0000000000
     29902       252  POPC      C24           -40.8012750802      -36.0093707398      -12.9343104177  MEMB      252             0.0000000000
     29903       252  POPC      H4R           -39.7091716813      -35.8575454815      -12.7980019654  MEMB      252             0.0000000000
     29904       252  POPC      H4S           -40.9684682330      -36.5699385385      -13.8788376577  MEMB      252             0.0000000000
     29905       252  POPC      C25           -41.4136502225      -36.7336710728      -11.7218660410  MEMB      252             0.0000000000
     29906       252  POPC      H5R           -41.1649858435      -37.7986498270      -11.9175882787  MEMB      252             0.0000000000
     29907       252  POPC      H5S           -42.4917288670      -36.5375554793      -11.5385466249  MEMB      252             0.0000000000
     29908       252  POPC      C26           -40.7934921916      -36.3278135864      -10.4050595854  MEMB      252             0.0000000000
     29909       252  POPC      H6R           -41.4481577489      -36.5352882849       -9.5317398359  MEMB      252             0.0000000000
     29910       252  POPC      H6S           -40.7065463244      -35.2216452749      -10.3489066147  MEMB      252             0.0000000000
     29911       252  POPC      C27           -39.4890641556      -37.1077750014      -10.0696184355  MEMB      252             0.0000000000
     29912       252  POPC      H7R           -38.7867312344      -36.8185682169      -10.8804259716  MEMB      252             0.0000000000
     29913       252  POPC      H7S           -39.8245770718      -38.1562499912      -10.2194601017  MEMB      252             0.0000000000
     29914       252  POPC      C28           -38.8941853430      -36.8793800609       -8.6102860652  MEMB      252             0.0000000000
     29915       252  POPC      H8R           -38.0030980840      -37.5400632633       -8.5487856344  MEMB      252             0.0000000000
     29916       252  POPC      H8S           -39.5241989569      -37.2655728789       -7.7806717942  MEMB      252             0.0000000000
     29917       252  POPC      C29           -38.3956283484      -35.4877883284       -8.4392554124  MEMB      252             0.0000000000
     29918       252  POPC      H91           -37.6372163649      -35.1531218234       -9.1623108387  MEMB      252             0.0000000000
     29919       252  POPC      C210          -38.6538332301      -34.6712900915       -7.4244493083  MEMB      252             0.0000000000
     29920       252  POPC      H101          -38.1210494895      -33.7096104476       -7.3882044921  MEMB      252             0.0000000000
     29921       252  POPC      C211          -39.5494632921      -35.0151527028       -6.2404697122  MEMB      252             0.0000000000
     29922       252  POPC      H11R          -39.1897636723      -34.4314155768       -5.3662905034  MEMB      252             0.0000000000
     29923       252  POPC      H11S          -39.3447681884      -36.0800300983       -5.9986899543  MEMB      252             0.0000000000
     29924       252  POPC      C212          -41.0582336585      -34.9290343475       -6.4591954500  MEMB      252             0.0000000000
     29925       252  POPC      H12R          -41.2857257078      -35.2580957870       -7.4956730240  MEMB      252             0.0000000000
     29926       252  POPC      H12S          -41.3061295599      -33.8665092955       -6.2496502043  MEMB      252             0.0000000000
     29927       252  POPC      C213          -41.8093253047      -35.8843035021       -5.5094181522  MEMB      252             0.0000000000
     29928       252  POPC      H13R          -41.3889560379      -35.8454157861       -4.4817520342  MEMB      252             0.0000000000
     29929       252  POPC      H13S          -41.6909789841      -36.9123112785       -5.9137882444  MEMB      252             0.0000000000
     29930       252  POPC      C214          -43.3260708464      -35.6395727849       -5.2345683852  MEMB      252             0.0000000000
     29931       252  POPC      H14R          -43.7073938812      -36.5432727800       -4.7128025414  MEMB      252             0.0000000000
     29932       252  POPC      H14S          -43.8296174503      -35.7299805466       -6.2207673970  MEMB      252             0.0000000000
     29933       252  POPC      C215          -43.6370479125      -34.4546678869       -4.4107363185  MEMB      252             0.0000000000
     29934       252  POPC      H15R          -43.5216024622      -33.6130333550       -5.1267278683  MEMB      252             0.0000000000
     29935       252  POPC      H15S          -42.8582031356      -34.2718302314       -3.6398327736  MEMB      252             0.0000000000
     29936       252  POPC      C216          -44.9094895868      -34.4891097037       -3.6090430905  MEMB      252             0.0000000000
     29937       252  POPC      H16R          -44.8515449959      -35.3134176033       -2.8664265937  MEMB      252             0.0000000000
     29938       252  POPC      H16S          -45.7441941779      -34.7852038128       -4.2798016452  MEMB      252             0.0000000000
     29939       252  POPC      C217          -45.1273173764      -33.1293102807       -2.8006195821  MEMB      252             0.0000000000
     29940       252  POPC      H17R          -46.0989558495      -33.1984023898       -2.2663288920  MEMB      252             0.0000000000
     29941       252  POPC      H17S          -45.1051422797      -32.2841551773       -3.5214128768  MEMB      252             0.0000000000
     29942       252  POPC      C218          -44.0214369564      -32.9283929617       -1.6972059342  MEMB      252             0.0000000000
     29943       252  POPC      H18R          -43.0744876199      -32.5499294463       -2.1380847999  MEMB      252             0.0000000000
     29944       252  POPC      H18S          -43.8961804768      -33.8995598418       -1.1723577328  MEMB      252             0.0000000000
     29945       252  POPC      H18T          -44.4831756752      -32.2499427760       -0.9483251195  MEMB      252             0.0000000000
     29946       252  POPC      C33           -45.5997558577      -32.4001577365      -10.8140974931  MEMB      252             0.0000000000
     29947       252  POPC      H3X           -46.6893993101      -32.5705412709      -10.9481430599  MEMB      252             0.0000000000
     29948       252  POPC      H3Y           -45.4498499811      -31.3082375332      -10.6742414466  MEMB      252             0.0000000000
     29949       252  POPC      C34           -45.2104402844      -33.1168321387       -9.4740660044  MEMB      252             0.0000000000
     29950       252  POPC      H4X           -44.1386504336      -33.3931645457       -9.5701260564  MEMB      252             0.0000000000
     29951       252  POPC      H4Y           -45.8329723980      -34.0354272311       -9.5284529966  MEMB      252             0.0000000000
     29952       252  POPC      C35           -45.5157951332      -32.3513098064       -8.2514673103  MEMB      252             0.0000000000
     29953       252  POPC      H5X           -44.9260698468      -32.7955789251       -7.4213045787  MEMB      252             0.0000000000
     29954       252  POPC      H5Y           -46.5803365734      -32.5537996914       -8.0063747737  MEMB      252             0.0000000000
     29955       252  POPC      C36           -45.2201729725      -30.8499053670       -8.2033238974  MEMB      252             0.0000000000
     29956       252  POPC      H6X           -45.8838515458      -30.3651431189       -7.4557567648  MEMB      252             0.0000000000
     29957       252  POPC      H6Y           -45.5258452991      -30.2800783398       -9.1067525801  MEMB      252             0.0000000000
     29958       252  POPC      C37           -43.6898293806      -30.5364935357       -8.1948703809  MEMB      252             0.0000000000
     29959       252  POPC      H7X           -43.4028924315      -29.5237514661       -8.5503154405  MEMB      252             0.0000000000
     29960       252  POPC      H7Y           -43.1870448277      -31.2485517967       -8.8837104321  MEMB      252             0.0000000000
     29961       252  POPC      C38           -43.0538530240      -30.6676142785       -6.7741808952  MEMB      252             0.0000000000
     29962       252  POPC      H8X           -42.9809591118      -31.7143566237       -6.4090257994  MEMB      252             0.0000000000
     29963       252  POPC      H8Y           -43.8047551509      -30.2318044644       -6.0809725007  MEMB      252             0.0000000000
     29964       252  POPC      C39           -41.6668412509      -30.0215455861       -6.6318450332  MEMB      252             0.0000000000
     29965       252  POPC      H9X           -41.6323662114      -28.9431625578       -6.8968408834  MEMB      252             0.0000000000
     29966       252  POPC      H9Y           -40.8639067369      -30.5047458193       -7.2286147462  MEMB      252             0.0000000000
     29967       252  POPC      C310          -41.0969881147      -30.0569366598       -5.1599284133  MEMB      252             0.0000000000
     29968       252  POPC      H10X          -41.8396218196      -29.4488382761       -4.6004351670  MEMB      252             0.0000000000
     29969       252  POPC      H10Y          -40.1153058805      -29.5519812928       -5.2849940710  MEMB      252             0.0000000000
     29970       252  POPC      C311          -40.9196843972      -31.4509082525       -4.5792187017  MEMB      252             0.0000000000
     29971       252  POPC      H11X          -40.4903134108      -32.1458457309       -5.3322282733  MEMB      252             0.0000000000
     29972       252  POPC      H11Y          -41.9248772831      -31.8586193723       -4.3390526081  MEMB      252             0.0000000000
     29973       252  POPC      C312          -39.9980013700      -31.6648561077       -3.2904107482  MEMB      252             0.0000000000
     29974       252  POPC      H12X          -40.4884761597      -32.4808708889       -2.7178074582  MEMB      252             0.0000000000
     29975       252  POPC      H12Y          -40.0685537543      -30.7006544985       -2.7430002521  MEMB      252             0.0000000000
     29976       252  POPC      C313          -38.4879443102      -31.8935411487       -3.4806142920  MEMB      252             0.0000000000
     29977       252  POPC      H13X          -38.1404439887      -30.8385281805       -3.4579752602  MEMB      252             0.0000000000
     29978       252  POPC      H13Y          -38.3040018040      -32.4271843984       -4.4375429827  MEMB      252             0.0000000000
     29979       252  POPC      C314          -37.8010472558      -32.6307671959       -2.3867142294  MEMB      252             0.0000000000
     29980       252  POPC      H14X          -36.7775530777      -32.9615744115       -2.6648272935  MEMB      252             0.0000000000
     29981       252  POPC      H14Y          -38.3444404158      -33.5785229696       -2.1847137299  MEMB      252             0.0000000000
     29982       252  POPC      C315          -37.7930927617      -31.9263233723       -0.9536282728  MEMB      252             0.0000000000
     29983       252  POPC      H15X          -38.7782304108      -31.9401587356       -0.4401762614  MEMB      252             0.0000000000
     29984       252  POPC      H15Y          -37.4963769016      -30.8590924341       -1.0390632142  MEMB      252             0.0000000000
     29985       252  POPC      C316          -36.8163056843      -32.5169961195        0.0254158214  MEMB      252             0.0000000000
     29986       252  POPC      H16X          -36.8058158545      -31.9909035084        1.0039033875  MEMB      252             0.0000000000
     29987       252  POPC      H16Y          -35.8770441608      -32.6181105284       -0.5592926386  MEMB      252             0.0000000000
     29988       252  POPC      H16Z          -37.0740460133      -33.5750864283        0.2452701530  MEMB      252             0.0000000000
     29989       253  POPC      N               8.9458786724       55.6781702695      -17.4588742259  MEMB      253             0.0000000000
     29990       253  POPC      C12             7.8324801805       56.5802881602      -17.9502777728  MEMB      253             0.0000000000
     29991       253  POPC      H12A            8.3011697654       57.5471148218      -17.8408408884  MEMB      253             0.0000000000
     29992       253  POPC      H12B            7.0372422659       56.6606034002      -17.2239541333  MEMB      253             0.0000000000
     29993       253  POPC      C13             8.3244940097       54.3212780684      -17.1241443445  MEMB      253             0.0000000000
     29994       253  POPC      H13A            7.5930744058       54.5025704331      -16.3504787414  MEMB      253             0.0000000000
     29995       253  POPC      H13B            7.8629647827       54.0202293244      -18.0529932330  MEMB      253             0.0000000000
     29996       253  POPC      H13C            9.1398226009       53.6416001696      -16.9249526054  MEMB      253             0.0000000000
     29997       253  POPC      C14             9.8831043550       55.3532840604      -18.6085584129  MEMB      253             0.0000000000
     29998       253  POPC      H14A            9.3498554559       54.7469912716      -19.3258133011  MEMB      253             0.0000000000
     29999       253  POPC      H14B           10.1687847716       56.2606729209      -19.1198628578  MEMB      253             0.0000000000
     30000       253  POPC      H14C           10.8019429669       54.8264596694      -18.3973906722  MEMB      253             0.0000000000
     30001       253  POPC      C15             9.7324821144       56.2792428962      -16.3361656265  MEMB      253             0.0000000000
     30002       253  POPC      H15A           10.6065871729       55.6728811135      -16.1499775773  MEMB      253             0.0000000000
     30003       253  POPC      H15B            9.0739293059       56.4486531593      -15.4971135840  MEMB      253             0.0000000000
     30004       253  POPC      H15C           10.1647370104       57.2367509613      -16.5866333428  MEMB      253             0.0000000000
     30005       253  POPC      C11             7.0837707573       56.5047231337      -19.2820919242  MEMB      253             0.0000000000
     30006       253  POPC      H11A            7.8278258603       56.8157589794      -20.0462644723  MEMB      253             0.0000000000
     30007       253  POPC      H11B            6.2769430318       57.2564257168      -19.1468396310  MEMB      253             0.0000000000
     30008       253  POPC      P               5.6659665987       54.7871422838      -20.5346517985  MEMB      253             0.0000000000
     30009       253  POPC      O13             5.7810814177       53.3081742562      -20.5877326208  MEMB      253             0.0000000000
     30010       253  POPC      O14             5.7591973329       55.5927691414      -21.7786735677  MEMB      253             0.0000000000
     30011       253  POPC      O12             6.6624467993       55.2036155426      -19.4322082516  MEMB      253             0.0000000000
     30012       253  POPC      O11             4.2348181503       55.0477539397      -19.9066214759  MEMB      253             0.0000000000
     30013       253  POPC      C1              3.9169006456       54.3084757316      -18.7004730292  MEMB      253             0.0000000000
     30014       253  POPC      HA              4.7163998479       54.4110924622      -17.9358869873  MEMB      253             0.0000000000
     30015       253  POPC      HB              3.6019709151       53.2448863270      -18.7630648263  MEMB      253             0.0000000000
     30016       253  POPC      C2              2.9051721414       55.0625676674      -17.7528824683  MEMB      253             0.0000000000
     30017       253  POPC      HS              1.9430501721       55.3140339746      -18.2482680428  MEMB      253             0.0000000000
     30018       253  POPC      O21             3.5527992570       56.2888250611      -17.2915379050  MEMB      253             0.0000000000
     30019       253  POPC      C21             3.4562346303       57.3279676770      -18.1063404053  MEMB      253             0.0000000000
     30020       253  POPC      O22             2.8610563983       57.4675206143      -19.1729335921  MEMB      253             0.0000000000
     30021       253  POPC      C22             4.1801975262       58.5072881306      -17.4358347292  MEMB      253             0.0000000000
     30022       253  POPC      H2R             3.3635175876       59.2086873019      -17.1612541307  MEMB      253             0.0000000000
     30023       253  POPC      H2S             4.7316501010       59.1262907929      -18.1754673493  MEMB      253             0.0000000000
     30024       253  POPC      C3              2.4959430612       54.1872966071      -16.5333131093  MEMB      253             0.0000000000
     30025       253  POPC      HX              1.8060610261       53.4200244555      -16.9452321253  MEMB      253             0.0000000000
     30026       253  POPC      HY              1.8400678287       54.8027321519      -15.8810955847  MEMB      253             0.0000000000
     30027       253  POPC      O31             3.7169549486       53.6175469604      -15.9831000590  MEMB      253             0.0000000000
     30028       253  POPC      C31             4.2930768486       54.2028024296      -14.9710499208  MEMB      253             0.0000000000
     30029       253  POPC      O32             3.8581493348       55.1726648204      -14.3785837287  MEMB      253             0.0000000000
     30030       253  POPC      C32             5.5934851702       53.5215120187      -14.6367053147  MEMB      253             0.0000000000
     30031       253  POPC      H2X             6.2667871063       54.1435591680      -15.2644335876  MEMB      253             0.0000000000
     30032       253  POPC      H2Y             5.5993508192       52.4830625009      -15.0315586367  MEMB      253             0.0000000000
     30033       253  POPC      C23             5.0059376610       58.3727829590      -16.0410066521  MEMB      253             0.0000000000
     30034       253  POPC      H3R             5.8537284814       57.7382465032      -16.3770649698  MEMB      253             0.0000000000
     30035       253  POPC      H3S             4.4523040288       57.7601951636      -15.2976714767  MEMB      253             0.0000000000
     30036       253  POPC      C24             5.4582956914       59.7283463578      -15.4543563273  MEMB      253             0.0000000000
     30037       253  POPC      H4R             4.5260759873       60.2685614118      -15.1833306545  MEMB      253             0.0000000000
     30038       253  POPC      H4S             6.0205600355       60.3218153197      -16.2066692189  MEMB      253             0.0000000000
     30039       253  POPC      C25             6.3088806161       59.5954526918      -14.2280723813  MEMB      253             0.0000000000
     30040       253  POPC      H5R             5.8686460885       58.9565978533      -13.4328495910  MEMB      253             0.0000000000
     30041       253  POPC      H5S             6.4206521936       60.6178233613      -13.8078502637  MEMB      253             0.0000000000
     30042       253  POPC      C26             7.6432227167       58.9725062150      -14.6872047560  MEMB      253             0.0000000000
     30043       253  POPC      H6R             8.0706878200       59.4453243277      -15.5971704181  MEMB      253             0.0000000000
     30044       253  POPC      H6S             7.4739028184       57.8874114438      -14.8551953785  MEMB      253             0.0000000000
     30045       253  POPC      C27             8.8932805933       59.1896502077      -13.7662961205  MEMB      253             0.0000000000
     30046       253  POPC      H7R             9.0534847416       60.2867129566      -13.8377746903  MEMB      253             0.0000000000
     30047       253  POPC      H7S             9.7475446409       58.7180109843      -14.2974362039  MEMB      253             0.0000000000
     30048       253  POPC      C28             8.7936497528       58.7997143733      -12.2985942180  MEMB      253             0.0000000000
     30049       253  POPC      H8R             7.8662447248       59.3360524333      -12.0043459268  MEMB      253             0.0000000000
     30050       253  POPC      H8S             9.6907223913       59.1798490288      -11.7646662985  MEMB      253             0.0000000000
     30051       253  POPC      C29             8.7284750870       57.2791303829      -12.0369333340  MEMB      253             0.0000000000
     30052       253  POPC      H91             9.4789930319       56.6389231431      -12.5236133665  MEMB      253             0.0000000000
     30053       253  POPC      C210            7.7430258553       56.6916663152      -11.2269396352  MEMB      253             0.0000000000
     30054       253  POPC      H101            7.8121733653       55.6017989457      -11.0950009116  MEMB      253             0.0000000000
     30055       253  POPC      C211            6.5703030920       57.2850994584      -10.4046591675  MEMB      253             0.0000000000
     30056       253  POPC      H11R            5.5954508362       56.8484894985      -10.7102009974  MEMB      253             0.0000000000
     30057       253  POPC      H11S            6.4597673475       58.3486789501      -10.7061583420  MEMB      253             0.0000000000
     30058       253  POPC      C212            6.6621423252       57.1240500788       -8.8944460206  MEMB      253             0.0000000000
     30059       253  POPC      H12R            7.7159076071       57.1368872156       -8.5426862505  MEMB      253             0.0000000000
     30060       253  POPC      H12S            6.1688434024       56.1833796297       -8.5686902863  MEMB      253             0.0000000000
     30061       253  POPC      C213            5.9381846936       58.2841530625       -8.1350601271  MEMB      253             0.0000000000
     30062       253  POPC      H13R            4.8517003767       58.3170990351       -8.3648150784  MEMB      253             0.0000000000
     30063       253  POPC      H13S            6.3144930743       59.2039213732       -8.6317878254  MEMB      253             0.0000000000
     30064       253  POPC      C214            6.1020469277       58.3726064215       -6.6337309767  MEMB      253             0.0000000000
     30065       253  POPC      H14R            5.7840475726       59.3375158076       -6.1841227212  MEMB      253             0.0000000000
     30066       253  POPC      H14S            7.1786279942       58.1916874793       -6.4274246568  MEMB      253             0.0000000000
     30067       253  POPC      C215            5.4416915339       57.2373886451       -5.7598877602  MEMB      253             0.0000000000
     30068       253  POPC      H15R            5.9429218333       56.2590287933       -5.9208260279  MEMB      253             0.0000000000
     30069       253  POPC      H15S            4.4350350825       57.0533225428       -6.1924189995  MEMB      253             0.0000000000
     30070       253  POPC      C216            5.1674034590       57.5844577306       -4.2155338035  MEMB      253             0.0000000000
     30071       253  POPC      H16R            6.1157241417       57.5499884952       -3.6377610437  MEMB      253             0.0000000000
     30072       253  POPC      H16S            4.4631944388       56.8213412907       -3.8204844000  MEMB      253             0.0000000000
     30073       253  POPC      C217            4.4027297354       58.9162231857       -3.9711296992  MEMB      253             0.0000000000
     30074       253  POPC      H17R            3.5871546676       59.0061072385       -4.7201821296  MEMB      253             0.0000000000
     30075       253  POPC      H17S            5.0275949107       59.7954428781       -4.2372821886  MEMB      253             0.0000000000
     30076       253  POPC      C218            3.8990706298       59.0004339446       -2.5397135363  MEMB      253             0.0000000000
     30077       253  POPC      H18R            3.0100769712       59.6575222462       -2.4290512042  MEMB      253             0.0000000000
     30078       253  POPC      H18S            4.6724233909       59.4680529923       -1.8935096533  MEMB      253             0.0000000000
     30079       253  POPC      H18T            3.6205946289       58.0175331659       -2.1030467475  MEMB      253             0.0000000000
     30080       253  POPC      C33             5.9518640188       53.6322323663      -13.1592350418  MEMB      253             0.0000000000
     30081       253  POPC      H3X             5.4800258120       54.5470782870      -12.7412079139  MEMB      253             0.0000000000
     30082       253  POPC      H3Y             7.0443706409       53.8174018378      -13.0788450756  MEMB      253             0.0000000000
     30083       253  POPC      C34             5.7221167736       52.2665566180      -12.4640495689  MEMB      253             0.0000000000
     30084       253  POPC      H4X             6.2670609188       51.4712975855      -13.0162451976  MEMB      253             0.0000000000
     30085       253  POPC      H4Y             4.6954714309       51.8687930102      -12.6127246378  MEMB      253             0.0000000000
     30086       253  POPC      C35             6.3318466319       52.2346147647      -10.9465625806  MEMB      253             0.0000000000
     30087       253  POPC      H5X             5.9801852782       51.2711649693      -10.5194568125  MEMB      253             0.0000000000
     30088       253  POPC      H5Y             5.9252261426       53.0430066044      -10.3019827748  MEMB      253             0.0000000000
     30089       253  POPC      C36             7.8845106863       52.2875711733      -10.9406599972  MEMB      253             0.0000000000
     30090       253  POPC      H6X             8.2663695478       53.2926321171      -11.2205838880  MEMB      253             0.0000000000
     30091       253  POPC      H6Y             8.3358805756       51.6204685050      -11.7058786139  MEMB      253             0.0000000000
     30092       253  POPC      C37             8.4054914984       51.9245931048       -9.5415643659  MEMB      253             0.0000000000
     30093       253  POPC      H7X             9.3988796917       51.4294049356       -9.5894155900  MEMB      253             0.0000000000
     30094       253  POPC      H7Y             7.6826313633       51.2237960061       -9.0717999508  MEMB      253             0.0000000000
     30095       253  POPC      C38             8.5997426819       53.2046436399       -8.6682149623  MEMB      253             0.0000000000
     30096       253  POPC      H8X             7.7015878628       53.8394272098       -8.8253422002  MEMB      253             0.0000000000
     30097       253  POPC      H8Y             9.5184015818       53.7005535236       -9.0482937012  MEMB      253             0.0000000000
     30098       253  POPC      C39             8.5060356668       52.9277737861       -7.1861393489  MEMB      253             0.0000000000
     30099       253  POPC      H9X             8.6424566724       53.9273383475       -6.7207564900  MEMB      253             0.0000000000
     30100       253  POPC      H9Y             9.4741217424       52.4022052956       -7.0415433966  MEMB      253             0.0000000000
     30101       253  POPC      C310            7.2007432759       52.2476486003       -6.7405604344  MEMB      253             0.0000000000
     30102       253  POPC      H10X            7.4061925611       51.8734769191       -5.7148382561  MEMB      253             0.0000000000
     30103       253  POPC      H10Y            7.0441632451       51.2906938396       -7.2828161805  MEMB      253             0.0000000000
     30104       253  POPC      C311            5.9639793848       53.1344409119       -6.7656777684  MEMB      253             0.0000000000
     30105       253  POPC      H11X            5.7070629722       53.2100636520       -7.8439153486  MEMB      253             0.0000000000
     30106       253  POPC      H11Y            6.1062441483       54.1610591921       -6.3655069359  MEMB      253             0.0000000000
     30107       253  POPC      C312            4.7719507988       52.6047654499       -5.9788647557  MEMB      253             0.0000000000
     30108       253  POPC      H12X            4.4867506249       51.7043109574       -6.5638127656  MEMB      253             0.0000000000
     30109       253  POPC      H12Y            3.9688697050       53.3683457627       -6.0584051669  MEMB      253             0.0000000000
     30110       253  POPC      C313            4.8069345540       52.3088733525       -4.5114329010  MEMB      253             0.0000000000
     30111       253  POPC      H13X            5.5741598695       51.5282131202       -4.3210232970  MEMB      253             0.0000000000
     30112       253  POPC      H13Y            3.8291910002       51.8833691753       -4.1995288587  MEMB      253             0.0000000000
     30113       253  POPC      C314            5.2341694330       53.4502718897       -3.6861203068  MEMB      253             0.0000000000
     30114       253  POPC      H14X            4.7989620855       54.3866970127       -4.0960269062  MEMB      253             0.0000000000
     30115       253  POPC      H14Y            6.3306715206       53.6224293331       -3.7347610410  MEMB      253             0.0000000000
     30116       253  POPC      C315            5.0327799466       53.2323732411       -2.1873507130  MEMB      253             0.0000000000
     30117       253  POPC      H15X            5.5379467846       52.2606218709       -2.0007320901  MEMB      253             0.0000000000
     30118       253  POPC      H15Y            3.9356767773       53.1925316174       -2.0167666247  MEMB      253             0.0000000000
     30119       253  POPC      C316            5.6363878665       54.3656623083       -1.2945661225  MEMB      253             0.0000000000
     30120       253  POPC      H16X            6.6331912581       54.5861199308       -1.7328606766  MEMB      253             0.0000000000
     30121       253  POPC      H16Y            5.6370156851       54.0327045139       -0.2346315919  MEMB      253             0.0000000000
     30122       253  POPC      H16Z            4.9565105738       55.2429909320       -1.2457562913  MEMB      253             0.0000000000
     30123       254  POPC      N             -46.5336064011      -20.4458754896      -18.1035690608  MEMB      254             0.0000000000
     30124       254  POPC      C12           -47.8844715392      -20.9517897674      -17.6314727035  MEMB      254             0.0000000000
     30125       254  POPC      H12A          -48.5528058677      -20.1549795600      -17.9227160329  MEMB      254             0.0000000000
     30126       254  POPC      H12B          -47.9094745673      -20.9504241664      -16.5517629834  MEMB      254             0.0000000000
     30127       254  POPC      C13           -45.3665506302      -21.3420101769      -17.7480857062  MEMB      254             0.0000000000
     30128       254  POPC      H13A          -44.5500795900      -20.6785947765      -17.5038417804  MEMB      254             0.0000000000
     30129       254  POPC      H13B          -45.6998766697      -21.8034901311      -16.8303002096  MEMB      254             0.0000000000
     30130       254  POPC      H13C          -45.0425821253      -21.9909412652      -18.5482937129  MEMB      254             0.0000000000
     30131       254  POPC      C14           -46.5016495182      -20.2249320128      -19.6100975498  MEMB      254             0.0000000000
     30132       254  POPC      H14A          -46.6102339303      -21.1261531406      -20.1952555558  MEMB      254             0.0000000000
     30133       254  POPC      H14B          -47.2836989465      -19.5460903718      -19.9166472078  MEMB      254             0.0000000000
     30134       254  POPC      H14C          -45.6386250314      -19.6486322956      -19.9092083759  MEMB      254             0.0000000000
     30135       254  POPC      C15           -46.3192109479      -19.1319967074      -17.3901740997  MEMB      254             0.0000000000
     30136       254  POPC      H15A          -45.6470993436      -18.4589182438      -17.9016732901  MEMB      254             0.0000000000
     30137       254  POPC      H15B          -46.1487692981      -19.2888969248      -16.3353128631  MEMB      254             0.0000000000
     30138       254  POPC      H15C          -47.1945697365      -18.5030317897      -17.4576290850  MEMB      254             0.0000000000
     30139       254  POPC      C11           -48.4428291789      -22.3456013457      -18.1097910718  MEMB      254             0.0000000000
     30140       254  POPC      H11A          -49.3562522404      -22.5157444259      -17.5006682180  MEMB      254             0.0000000000
     30141       254  POPC      H11B          -47.6799721826      -23.0995913110      -17.8201889639  MEMB      254             0.0000000000
     30142       254  POPC      P             -49.8407826113      -21.7202033127      -20.1882704130  MEMB      254             0.0000000000
     30143       254  POPC      O13           -50.6970103170      -22.8299109049      -20.7027590176  MEMB      254             0.0000000000
     30144       254  POPC      O14           -49.5123002445      -20.5808789376      -21.1162135159  MEMB      254             0.0000000000
     30145       254  POPC      O12           -48.5899922246      -22.3174170537      -19.4946017408  MEMB      254             0.0000000000
     30146       254  POPC      O11           -50.6224797121      -21.0412966598      -18.9049651526  MEMB      254             0.0000000000
     30147       254  POPC      C1            -51.9152793692      -20.4127861100      -19.0158562550  MEMB      254             0.0000000000
     30148       254  POPC      HA            -52.7156838035      -20.9774299119      -19.5401186740  MEMB      254             0.0000000000
     30149       254  POPC      HB            -51.7457715169      -19.4749891463      -19.5869299807  MEMB      254             0.0000000000
     30150       254  POPC      C2            -52.3974389145      -20.0053053562      -17.5857484524  MEMB      254             0.0000000000
     30151       254  POPC      HS            -53.0784669275      -19.1293138995      -17.5295245223  MEMB      254             0.0000000000
     30152       254  POPC      O21           -51.3363336791      -19.4289937230      -16.8297046639  MEMB      254             0.0000000000
     30153       254  POPC      C21           -50.9352896483      -18.2401725519      -17.2416846538  MEMB      254             0.0000000000
     30154       254  POPC      O22           -51.3905652586      -17.5150806839      -18.1000973325  MEMB      254             0.0000000000
     30155       254  POPC      C22           -49.8374335504      -17.8428188435      -16.2448989567  MEMB      254             0.0000000000
     30156       254  POPC      H2R           -49.4284563983      -16.8812690940      -16.6223653898  MEMB      254             0.0000000000
     30157       254  POPC      H2S           -49.0557129774      -18.6287084483      -16.3198076090  MEMB      254             0.0000000000
     30158       254  POPC      C3            -52.9331923051      -21.1182541421      -16.7067286762  MEMB      254             0.0000000000
     30159       254  POPC      HX            -53.4694128732      -21.7731726896      -17.4263607463  MEMB      254             0.0000000000
     30160       254  POPC      HY            -53.6166181990      -20.6124255913      -15.9916149301  MEMB      254             0.0000000000
     30161       254  POPC      O31           -51.8849649020      -21.8672208790      -16.0133817900  MEMB      254             0.0000000000
     30162       254  POPC      C31           -51.6626193158      -21.6643617486      -14.7512795406  MEMB      254             0.0000000000
     30163       254  POPC      O32           -52.1075044646      -20.7654781398      -14.0216026230  MEMB      254             0.0000000000
     30164       254  POPC      C32           -50.5123467555      -22.6850454300      -14.3756269152  MEMB      254             0.0000000000
     30165       254  POPC      H2X           -49.8324919201      -22.1660009735      -13.6666058149  MEMB      254             0.0000000000
     30166       254  POPC      H2Y           -49.8516749227      -22.8684247429      -15.2498155175  MEMB      254             0.0000000000
     30167       254  POPC      C23           -50.5368358577      -17.6132355167      -14.8935062355  MEMB      254             0.0000000000
     30168       254  POPC      H3R           -50.7649175714      -18.6038436983      -14.4451812587  MEMB      254             0.0000000000
     30169       254  POPC      H3S           -51.4939270582      -17.0749767732      -15.0625472912  MEMB      254             0.0000000000
     30170       254  POPC      C24           -49.7711132859      -16.7680179000      -13.9232670512  MEMB      254             0.0000000000
     30171       254  POPC      H4R           -50.2768722576      -16.7507930514      -12.9342110640  MEMB      254             0.0000000000
     30172       254  POPC      H4S           -49.8010653389      -15.7012409871      -14.2321530314  MEMB      254             0.0000000000
     30173       254  POPC      C25           -48.2736148943      -17.1804812366      -13.7838371211  MEMB      254             0.0000000000
     30174       254  POPC      H5R           -47.7001753669      -16.5225523942      -13.0963651692  MEMB      254             0.0000000000
     30175       254  POPC      H5S           -47.6898830171      -17.2513820536      -14.7264670278  MEMB      254             0.0000000000
     30176       254  POPC      C26           -48.2887786412      -18.6001611401      -13.0983885023  MEMB      254             0.0000000000
     30177       254  POPC      H6R           -48.6305052588      -19.4210623284      -13.7644706080  MEMB      254             0.0000000000
     30178       254  POPC      H6S           -48.9652789217      -18.3467318096      -12.2543257264  MEMB      254             0.0000000000
     30179       254  POPC      C27           -47.0210970594      -19.0260210128      -12.5093182377  MEMB      254             0.0000000000
     30180       254  POPC      H7R           -46.2579357461      -18.3050486675      -12.1458560283  MEMB      254             0.0000000000
     30181       254  POPC      H7S           -46.6243823207      -19.5557013291      -13.4017182714  MEMB      254             0.0000000000
     30182       254  POPC      C28           -47.0299487617      -20.1497051501      -11.4645270017  MEMB      254             0.0000000000
     30183       254  POPC      H8R           -45.9454416806      -20.2500497894      -11.2452177488  MEMB      254             0.0000000000
     30184       254  POPC      H8S           -47.4379427686      -21.0768606960      -11.9208651354  MEMB      254             0.0000000000
     30185       254  POPC      C29           -47.6260879175      -19.7157485620      -10.1289907304  MEMB      254             0.0000000000
     30186       254  POPC      H91           -48.0954669469      -18.7230591769      -10.0637894848  MEMB      254             0.0000000000
     30187       254  POPC      C210          -47.4723353990      -20.3420825512       -8.9793416908  MEMB      254             0.0000000000
     30188       254  POPC      H101          -47.9465032772      -19.9198336791       -8.0810811301  MEMB      254             0.0000000000
     30189       254  POPC      C211          -46.7735019545      -21.5989591059       -8.6894987735  MEMB      254             0.0000000000
     30190       254  POPC      H11R          -46.8152899768      -22.4015773175       -9.4565575764  MEMB      254             0.0000000000
     30191       254  POPC      H11S          -47.2723004194      -22.0291207865       -7.7948021563  MEMB      254             0.0000000000
     30192       254  POPC      C212          -45.2912072772      -21.5721283549       -8.2527915311  MEMB      254             0.0000000000
     30193       254  POPC      H12R          -44.6492302570      -21.2154271897       -9.0864290967  MEMB      254             0.0000000000
     30194       254  POPC      H12S          -44.9792914732      -22.6356322029       -8.1754031228  MEMB      254             0.0000000000
     30195       254  POPC      C213          -44.9566296170      -20.6855047977       -6.9975155881  MEMB      254             0.0000000000
     30196       254  POPC      H13R          -45.8294426263      -20.6948387132       -6.3101785361  MEMB      254             0.0000000000
     30197       254  POPC      H13S          -44.9042242225      -19.6090270743       -7.2672754217  MEMB      254             0.0000000000
     30198       254  POPC      C214          -43.6577099780      -21.0807237824       -6.2483185717  MEMB      254             0.0000000000
     30199       254  POPC      H14R          -42.8385379664      -21.0223244901       -6.9965623309  MEMB      254             0.0000000000
     30200       254  POPC      H14S          -43.7152883858      -22.1382456765       -5.9126801241  MEMB      254             0.0000000000
     30201       254  POPC      C215          -43.4397344597      -20.1944027630       -4.9833501253  MEMB      254             0.0000000000
     30202       254  POPC      H15R          -43.3245703170      -19.1133179065       -5.2120714326  MEMB      254             0.0000000000
     30203       254  POPC      H15S          -42.4542242570      -20.6137406597       -4.6879752310  MEMB      254             0.0000000000
     30204       254  POPC      C216          -44.4931376274      -20.5408008691       -3.9158275176  MEMB      254             0.0000000000
     30205       254  POPC      H16R          -44.6081436674      -21.6368840603       -3.7754843424  MEMB      254             0.0000000000
     30206       254  POPC      H16S          -45.5002200405      -20.1289181891       -4.1404579813  MEMB      254             0.0000000000
     30207       254  POPC      C217          -44.0422563853      -20.1592468761       -2.4763632249  MEMB      254             0.0000000000
     30208       254  POPC      H17R          -43.0775709173      -20.6472994807       -2.2204177433  MEMB      254             0.0000000000
     30209       254  POPC      H17S          -44.8747918964      -20.5480499604       -1.8518328604  MEMB      254             0.0000000000
     30210       254  POPC      C218          -43.8280329796      -18.6684430500       -2.2583762449  MEMB      254             0.0000000000
     30211       254  POPC      H18R          -43.6928877865      -18.4248926140       -1.1828574362  MEMB      254             0.0000000000
     30212       254  POPC      H18S          -44.6727515341      -17.9997980484       -2.5298270056  MEMB      254             0.0000000000
     30213       254  POPC      H18T          -43.0246993026      -18.2537276322       -2.9041199800  MEMB      254             0.0000000000
     30214       254  POPC      C33           -51.1559844943      -23.9761570361      -13.8043511868  MEMB      254             0.0000000000
     30215       254  POPC      H3X           -51.8117044256      -24.4110461482      -14.5887134022  MEMB      254             0.0000000000
     30216       254  POPC      H3Y           -51.6968747048      -23.5952196752      -12.9118008137  MEMB      254             0.0000000000
     30217       254  POPC      C34           -50.0466292085      -24.9638837780      -13.4757036171  MEMB      254             0.0000000000
     30218       254  POPC      H4X           -49.4652703240      -25.2534145541      -14.3770992872  MEMB      254             0.0000000000
     30219       254  POPC      H4Y           -50.4684872362      -25.9153518047      -13.0870331566  MEMB      254             0.0000000000
     30220       254  POPC      C35           -49.0627036160      -24.5470062774      -12.4554260004  MEMB      254             0.0000000000
     30221       254  POPC      H5X           -48.7313214229      -23.5088231208      -12.6714884438  MEMB      254             0.0000000000
     30222       254  POPC      H5Y           -48.1410994038      -25.1377053583      -12.6452708497  MEMB      254             0.0000000000
     30223       254  POPC      C36           -49.3992827285      -24.7634333842      -10.9782844752  MEMB      254             0.0000000000
     30224       254  POPC      H6X           -48.5610312657      -24.5982402358      -10.2680969153  MEMB      254             0.0000000000
     30225       254  POPC      H6Y           -49.4651342380      -25.8705013077      -11.0445051583  MEMB      254             0.0000000000
     30226       254  POPC      C37           -50.6590636560      -24.0457988401      -10.3375602780  MEMB      254             0.0000000000
     30227       254  POPC      H7X           -50.7404037459      -24.3505963542       -9.2722883064  MEMB      254             0.0000000000
     30228       254  POPC      H7Y           -51.5616227852      -24.4156302923      -10.8694742611  MEMB      254             0.0000000000
     30229       254  POPC      C38           -50.4665206063      -22.5169502291      -10.4515110699  MEMB      254             0.0000000000
     30230       254  POPC      H8X           -49.9979039607      -22.2998717489      -11.4351752282  MEMB      254             0.0000000000
     30231       254  POPC      H8Y           -49.8050842181      -22.1933093615       -9.6195978480  MEMB      254             0.0000000000
     30232       254  POPC      C39           -51.7725952305      -21.5961432337      -10.3572328043  MEMB      254             0.0000000000
     30233       254  POPC      H9X           -52.5598725750      -21.9322846721      -11.0654168999  MEMB      254             0.0000000000
     30234       254  POPC      H9Y           -51.4488305367      -20.6241819740      -10.7871035350  MEMB      254             0.0000000000
     30235       254  POPC      C310          -52.3408657249      -21.5754527046       -8.9625370360  MEMB      254             0.0000000000
     30236       254  POPC      H10X          -51.5400850227      -21.7341734183       -8.2089605197  MEMB      254             0.0000000000
     30237       254  POPC      H10Y          -53.0402108647      -22.4278230123       -8.8257792640  MEMB      254             0.0000000000
     30238       254  POPC      C311          -53.1477604140      -20.2506118084       -8.6806291501  MEMB      254             0.0000000000
     30239       254  POPC      H11X          -53.9480010237      -20.2296218086       -9.4510154931  MEMB      254             0.0000000000
     30240       254  POPC      H11Y          -52.3828098445      -19.4559701550       -8.8137302118  MEMB      254             0.0000000000
     30241       254  POPC      C312          -53.6951066863      -20.1746359833       -7.2503170929  MEMB      254             0.0000000000
     30242       254  POPC      H12X          -54.3519597040      -21.0667003079       -7.1661361848  MEMB      254             0.0000000000
     30243       254  POPC      H12Y          -54.3613678185      -19.3442512085       -6.9327044405  MEMB      254             0.0000000000
     30244       254  POPC      C313          -52.6906955624      -20.2611641936       -5.9952637330  MEMB      254             0.0000000000
     30245       254  POPC      H13X          -51.8899418024      -21.0112321569       -6.1699403765  MEMB      254             0.0000000000
     30246       254  POPC      H13Y          -53.3518329565      -20.6800857618       -5.2067690408  MEMB      254             0.0000000000
     30247       254  POPC      C314          -52.0498527268      -18.9315447990       -5.4793521298  MEMB      254             0.0000000000
     30248       254  POPC      H14X          -52.8597419867      -18.1807986029       -5.3577769133  MEMB      254             0.0000000000
     30249       254  POPC      H14Y          -51.4731878021      -18.6704614001       -6.3923771997  MEMB      254             0.0000000000
     30250       254  POPC      C315          -51.1661773539      -19.0235223694       -4.2474303247  MEMB      254             0.0000000000
     30251       254  POPC      H15X          -50.7121301019      -18.0290937282       -4.0492545372  MEMB      254             0.0000000000
     30252       254  POPC      H15Y          -50.3767002773      -19.7610018730       -4.5066036606  MEMB      254             0.0000000000
     30253       254  POPC      C316          -51.8029226941      -19.5572024862       -2.9185475685  MEMB      254             0.0000000000
     30254       254  POPC      H16X          -51.2294780841      -19.4084277669       -1.9786828029  MEMB      254             0.0000000000
     30255       254  POPC      H16Y          -51.9996560510      -20.6504649237       -2.8986819313  MEMB      254             0.0000000000
     30256       254  POPC      H16Z          -52.8245986060      -19.1660830980       -2.7248344461  MEMB      254             0.0000000000
     30257       255  POPC      N              -7.5952733642       55.4325922957      -17.9197656499  MEMB      255             0.0000000000
     30258       255  POPC      C12            -6.9271790293       54.2668295279      -18.7308163947  MEMB      255             0.0000000000
     30259       255  POPC      H12A           -7.1098974657       53.3788197203      -18.1439155503  MEMB      255             0.0000000000
     30260       255  POPC      H12B           -5.8775967842       54.5179945242      -18.7719649412  MEMB      255             0.0000000000
     30261       255  POPC      C13            -9.0726975385       55.1917898662      -17.7501676988  MEMB      255             0.0000000000
     30262       255  POPC      H13A           -9.1886465356       54.1378184458      -17.5449845036  MEMB      255             0.0000000000
     30263       255  POPC      H13B           -9.4633154968       55.7545458427      -16.9152285263  MEMB      255             0.0000000000
     30264       255  POPC      H13C           -9.5844822570       55.4838410709      -18.6552547209  MEMB      255             0.0000000000
     30265       255  POPC      C14            -7.0615298265       55.2871722254      -16.4970814216  MEMB      255             0.0000000000
     30266       255  POPC      H14A           -7.3182669909       56.1007574869      -15.8348388280  MEMB      255             0.0000000000
     30267       255  POPC      H14B           -7.2355803367       54.2983104954      -16.0992638937  MEMB      255             0.0000000000
     30268       255  POPC      H14C           -5.9953078386       55.4197468548      -16.6066020507  MEMB      255             0.0000000000
     30269       255  POPC      C15            -7.3826741500       56.7991192733      -18.5663904928  MEMB      255             0.0000000000
     30270       255  POPC      H15A           -6.3239380105       56.9407379523      -18.4069486885  MEMB      255             0.0000000000
     30271       255  POPC      H15B           -7.9836845758       57.4605898491      -17.9600546934  MEMB      255             0.0000000000
     30272       255  POPC      H15C           -7.6410139056       56.8447012281      -19.6140464036  MEMB      255             0.0000000000
     30273       255  POPC      C11            -7.4606881833       54.0173214979      -20.1364164855  MEMB      255             0.0000000000
     30274       255  POPC      H11A           -6.8250535568       53.2788037289      -20.6701590458  MEMB      255             0.0000000000
     30275       255  POPC      H11B           -7.4686173755       54.9652506646      -20.7158026380  MEMB      255             0.0000000000
     30276       255  POPC      P              -9.1509272442       52.1381146921      -19.9293816407  MEMB      255             0.0000000000
     30277       255  POPC      O13            -8.3149535416       51.2927688384      -20.8648859509  MEMB      255             0.0000000000
     30278       255  POPC      O14           -10.5938087733       51.9034361420      -20.0437848364  MEMB      255             0.0000000000
     30279       255  POPC      O12            -8.7846052422       53.6303641429      -20.1692754401  MEMB      255             0.0000000000
     30280       255  POPC      O11            -8.7414823965       51.8043674691      -18.3920339898  MEMB      255             0.0000000000
     30281       255  POPC      C1             -9.1565284950       50.5775578765      -17.7914371522  MEMB      255             0.0000000000
     30282       255  POPC      HA             -8.9941915673       49.7414787815      -18.5048369573  MEMB      255             0.0000000000
     30283       255  POPC      HB            -10.2440363138       50.5147021691      -17.5730410226  MEMB      255             0.0000000000
     30284       255  POPC      C2             -8.1892973653       50.3606218507      -16.6072734042  MEMB      255             0.0000000000
     30285       255  POPC      HS             -8.3772788328       49.3958128813      -16.0894631319  MEMB      255             0.0000000000
     30286       255  POPC      O21            -8.2575751124       51.4851222038      -15.7608745196  MEMB      255             0.0000000000
     30287       255  POPC      C21            -9.3582056096       51.4616916725      -14.9488828421  MEMB      255             0.0000000000
     30288       255  POPC      O22           -10.4064519097       50.8709559840      -15.1472557051  MEMB      255             0.0000000000
     30289       255  POPC      C22            -9.0862766729       52.3791079351      -13.7899250329  MEMB      255             0.0000000000
     30290       255  POPC      H2R            -8.6095912218       53.3492514797      -14.0466610955  MEMB      255             0.0000000000
     30291       255  POPC      H2S            -8.5121793191       51.7639132357      -13.0644813058  MEMB      255             0.0000000000
     30292       255  POPC      C3             -6.6600751090       50.2555990089      -17.1378976123  MEMB      255             0.0000000000
     30293       255  POPC      HX             -6.6465128716       50.7150994821      -18.1493303413  MEMB      255             0.0000000000
     30294       255  POPC      HY             -6.4047342725       49.2055991726      -17.3960110704  MEMB      255             0.0000000000
     30295       255  POPC      O31            -5.6631888727       50.8706738329      -16.3960809559  MEMB      255             0.0000000000
     30296       255  POPC      C31            -5.3712573051       50.3047488102      -15.2545418380  MEMB      255             0.0000000000
     30297       255  POPC      O32            -5.6624198702       49.1826783279      -14.8676329389  MEMB      255             0.0000000000
     30298       255  POPC      C32            -4.5148208405       51.2756333999      -14.4474437256  MEMB      255             0.0000000000
     30299       255  POPC      H2X            -4.2204093790       52.2278792997      -14.9382291661  MEMB      255             0.0000000000
     30300       255  POPC      H2Y            -3.5119891559       50.8436536932      -14.2424004154  MEMB      255             0.0000000000
     30301       255  POPC      C23           -10.3371730399       52.7379792765      -12.9593879396  MEMB      255             0.0000000000
     30302       255  POPC      H3R           -10.7288106856       51.8662788254      -12.3927495750  MEMB      255             0.0000000000
     30303       255  POPC      H3S           -11.2109792085       53.1704298734      -13.4920889353  MEMB      255             0.0000000000
     30304       255  POPC      C24           -10.0301328986       53.8724831776      -11.9445775778  MEMB      255             0.0000000000
     30305       255  POPC      H4R            -9.8375379645       54.8221833293      -12.4879905826  MEMB      255             0.0000000000
     30306       255  POPC      H4S            -9.0273974390       53.6232782691      -11.5362401525  MEMB      255             0.0000000000
     30307       255  POPC      C25           -11.1844865788       53.9940866083      -10.9530794262  MEMB      255             0.0000000000
     30308       255  POPC      H5R           -12.1586749371       53.9511339049      -11.4854641968  MEMB      255             0.0000000000
     30309       255  POPC      H5S           -11.0643205165       54.9737442006      -10.4430291425  MEMB      255             0.0000000000
     30310       255  POPC      C26           -10.9913216086       52.9080526786       -9.8443438311  MEMB      255             0.0000000000
     30311       255  POPC      H6R           -10.9336723480       51.9267148118      -10.3620047350  MEMB      255             0.0000000000
     30312       255  POPC      H6S           -11.9190971135       52.8725050721       -9.2341871363  MEMB      255             0.0000000000
     30313       255  POPC      C27            -9.8679610032       53.2061624966       -8.8004403701  MEMB      255             0.0000000000
     30314       255  POPC      H7R           -10.1208675246       54.2165002056       -8.4136885061  MEMB      255             0.0000000000
     30315       255  POPC      H7S            -8.9083303136       53.3273083441       -9.3470234916  MEMB      255             0.0000000000
     30316       255  POPC      C28            -9.6200542508       52.1283045817       -7.6695291352  MEMB      255             0.0000000000
     30317       255  POPC      H8R           -10.5987412749       52.1268803011       -7.1437053341  MEMB      255             0.0000000000
     30318       255  POPC      H8S            -8.7981706337       52.6007197793       -7.0901733897  MEMB      255             0.0000000000
     30319       255  POPC      C29            -9.2989666793       50.7421734920       -8.2254188255  MEMB      255             0.0000000000
     30320       255  POPC      H91            -9.7603016199       50.6244137695       -9.2170354862  MEMB      255             0.0000000000
     30321       255  POPC      C210           -8.8025402632       49.7600891715       -7.5324935342  MEMB      255             0.0000000000
     30322       255  POPC      H101           -8.5849134199       48.8516219671       -8.1132912987  MEMB      255             0.0000000000
     30323       255  POPC      C211           -8.3780116444       49.8362590727       -6.0715269224  MEMB      255             0.0000000000
     30324       255  POPC      H11R           -8.2498596729       50.9164465981       -5.8454893931  MEMB      255             0.0000000000
     30325       255  POPC      H11S           -7.3511263235       49.4121991284       -6.0709497245  MEMB      255             0.0000000000
     30326       255  POPC      C212           -9.3490477732       49.1463102675       -5.1526263926  MEMB      255             0.0000000000
     30327       255  POPC      H12R           -9.3207893030       48.0728430002       -5.4375649494  MEMB      255             0.0000000000
     30328       255  POPC      H12S          -10.3880306967       49.5228942881       -5.2667307818  MEMB      255             0.0000000000
     30329       255  POPC      C213           -8.9278344799       49.2331042508       -3.6463565741  MEMB      255             0.0000000000
     30330       255  POPC      H13R           -7.9839751067       48.6941674680       -3.4161444256  MEMB      255             0.0000000000
     30331       255  POPC      H13S           -9.7191645268       48.7633736205       -3.0238859733  MEMB      255             0.0000000000
     30332       255  POPC      C214           -8.7104488139       50.6169956293       -3.1053871183  MEMB      255             0.0000000000
     30333       255  POPC      H14R           -8.0693090805       51.2453320180       -3.7599522808  MEMB      255             0.0000000000
     30334       255  POPC      H14S           -8.3806527553       50.4487614633       -2.0578900046  MEMB      255             0.0000000000
     30335       255  POPC      C215           -9.9519119080       51.5193000701       -2.9545698901  MEMB      255             0.0000000000
     30336       255  POPC      H15R          -10.4659056595       51.7385891471       -3.9148017543  MEMB      255             0.0000000000
     30337       255  POPC      H15S           -9.5751830552       52.4835102535       -2.5512153374  MEMB      255             0.0000000000
     30338       255  POPC      C216          -11.0480954407       50.9955221300       -1.9819872024  MEMB      255             0.0000000000
     30339       255  POPC      H16R          -10.6162492930       50.8826346695       -0.9645961778  MEMB      255             0.0000000000
     30340       255  POPC      H16S          -11.4357105928       50.0068748849       -2.3085647244  MEMB      255             0.0000000000
     30341       255  POPC      C217          -12.2384686919       51.9766835743       -1.8197805688  MEMB      255             0.0000000000
     30342       255  POPC      H17R          -11.9069343498       52.9569803367       -1.4155245461  MEMB      255             0.0000000000
     30343       255  POPC      H17S          -12.8475095533       51.6229902446       -0.9605416979  MEMB      255             0.0000000000
     30344       255  POPC      C218          -13.2548291516       52.1637238829       -2.9993401161  MEMB      255             0.0000000000
     30345       255  POPC      H18R          -13.4979095691       51.1306579893       -3.3279858580  MEMB      255             0.0000000000
     30346       255  POPC      H18S          -12.7204977642       52.6906401004       -3.8185908369  MEMB      255             0.0000000000
     30347       255  POPC      H18T          -14.1369666213       52.8224304033       -2.8501441952  MEMB      255             0.0000000000
     30348       255  POPC      C33            -5.2238694745       51.5290232426      -13.0965882220  MEMB      255             0.0000000000
     30349       255  POPC      H3X            -5.6018178044       50.5937886868      -12.6309574079  MEMB      255             0.0000000000
     30350       255  POPC      H3Y            -6.1306157481       52.1118520338      -13.3657398779  MEMB      255             0.0000000000
     30351       255  POPC      C34            -4.3243877717       52.1543995592      -12.0035856332  MEMB      255             0.0000000000
     30352       255  POPC      H4X            -3.8248124414       53.0873127402      -12.3418435834  MEMB      255             0.0000000000
     30353       255  POPC      H4Y            -3.4295667424       51.5570603308      -11.7264540912  MEMB      255             0.0000000000
     30354       255  POPC      C35            -5.1158685206       52.5715713096      -10.7070756740  MEMB      255             0.0000000000
     30355       255  POPC      H5X            -5.7689302617       51.7086450556      -10.4557002302  MEMB      255             0.0000000000
     30356       255  POPC      H5Y            -5.7262151204       53.4664738570      -10.9539503623  MEMB      255             0.0000000000
     30357       255  POPC      C36            -4.3015893327       53.0184571838       -9.4748852594  MEMB      255             0.0000000000
     30358       255  POPC      H6X            -3.8017274088       53.9458940359       -9.8274756780  MEMB      255             0.0000000000
     30359       255  POPC      H6Y            -3.5386382378       52.2575968795       -9.2041106901  MEMB      255             0.0000000000
     30360       255  POPC      C37            -5.1344350781       53.2116275506       -8.0968482306  MEMB      255             0.0000000000
     30361       255  POPC      H7X            -5.6820393354       52.2522208735       -7.9785720579  MEMB      255             0.0000000000
     30362       255  POPC      H7Y            -5.8849518931       54.0236308215       -8.2049972241  MEMB      255             0.0000000000
     30363       255  POPC      C38            -4.3594602130       53.5862446136       -6.8766611925  MEMB      255             0.0000000000
     30364       255  POPC      H8X            -3.8894413689       54.5801920278       -7.0362613946  MEMB      255             0.0000000000
     30365       255  POPC      H8Y            -3.5484555146       52.8791386632       -6.5999050667  MEMB      255             0.0000000000
     30366       255  POPC      C39            -5.2050727912       53.8383312743       -5.6414697510  MEMB      255             0.0000000000
     30367       255  POPC      H9X            -5.9516709431       53.0299820845       -5.4882256593  MEMB      255             0.0000000000
     30368       255  POPC      H9Y            -5.7329551804       54.8154704420       -5.6707947205  MEMB      255             0.0000000000
     30369       255  POPC      C310           -4.2999434096       53.8721491239       -4.4249606725  MEMB      255             0.0000000000
     30370       255  POPC      H10X           -3.4277539958       54.5532153596       -4.5237299058  MEMB      255             0.0000000000
     30371       255  POPC      H10Y           -3.8734668011       52.8464249359       -4.4068371562  MEMB      255             0.0000000000
     30372       255  POPC      C311           -4.9504782336       54.0845790388       -3.0777954128  MEMB      255             0.0000000000
     30373       255  POPC      H11X           -5.0970447900       55.1855217453       -3.0501459912  MEMB      255             0.0000000000
     30374       255  POPC      H11Y           -4.2650823392       53.8074478714       -2.2484869090  MEMB      255             0.0000000000
     30375       255  POPC      C312           -6.3492877009       53.3435203949       -2.8022777222  MEMB      255             0.0000000000
     30376       255  POPC      H12X           -6.1611732203       52.2844657451       -3.0803740672  MEMB      255             0.0000000000
     30377       255  POPC      H12Y           -7.1241676663       53.6648428525       -3.5307238641  MEMB      255             0.0000000000
     30378       255  POPC      C313           -6.9146993266       53.5654013599       -1.3463943149  MEMB      255             0.0000000000
     30379       255  POPC      H13X           -7.9849873743       53.2730928510       -1.4043622415  MEMB      255             0.0000000000
     30380       255  POPC      H13Y           -6.8460527443       54.6393618661       -1.0703196870  MEMB      255             0.0000000000
     30381       255  POPC      C314           -6.3111301750       52.7824541256       -0.2445586410  MEMB      255             0.0000000000
     30382       255  POPC      H14X           -5.3371917917       53.2248495495        0.0555275012  MEMB      255             0.0000000000
     30383       255  POPC      H14Y           -6.1311885107       51.7130223340       -0.4859246351  MEMB      255             0.0000000000
     30384       255  POPC      C315           -7.1297222736       52.7824637186        1.0125485880  MEMB      255             0.0000000000
     30385       255  POPC      H15X           -6.9966931077       51.8392347135        1.5843375904  MEMB      255             0.0000000000
     30386       255  POPC      H15Y           -8.2254370961       52.9024742450        0.8735247655  MEMB      255             0.0000000000
     30387       255  POPC      C316           -6.5474269640       53.7113769740        2.1035756769  MEMB      255             0.0000000000
     30388       255  POPC      H16X           -5.6423521272       53.2317284599        2.5338038698  MEMB      255             0.0000000000
     30389       255  POPC      H16Y           -7.2802376289       53.7681585782        2.9366924969  MEMB      255             0.0000000000
     30390       255  POPC      H16Z           -6.3302076219       54.6558637720        1.5603600799  MEMB      255             0.0000000000
     30391       256  POPC      N              46.9689722705      -27.8582883706      -18.6945818394  MEMB      256             0.0000000000
     30392       256  POPC      C12            47.0584312668      -26.6649255154      -17.7215226914  MEMB      256             0.0000000000
     30393       256  POPC      H12A           47.4178867693      -27.0344438746      -16.7724978875  MEMB      256             0.0000000000
     30394       256  POPC      H12B           46.0403982821      -26.4120624876      -17.4644832993  MEMB      256             0.0000000000
     30395       256  POPC      C13            45.6829552998      -27.7982433859      -19.4304229213  MEMB      256             0.0000000000
     30396       256  POPC      H13A           45.5975161507      -28.6914905359      -20.0314300431  MEMB      256             0.0000000000
     30397       256  POPC      H13B           44.8614728961      -27.7772057806      -18.7296206015  MEMB      256             0.0000000000
     30398       256  POPC      H13C           45.6327001814      -26.9366594120      -20.0796898344  MEMB      256             0.0000000000
     30399       256  POPC      C14            48.1093366955      -27.7393637228      -19.6119501894  MEMB      256             0.0000000000
     30400       256  POPC      H14A           48.2995540748      -26.8062860142      -20.1214431987  MEMB      256             0.0000000000
     30401       256  POPC      H14B           48.9995486792      -28.0688144657      -19.0967947484  MEMB      256             0.0000000000
     30402       256  POPC      H14C           47.9666247646      -28.4267639647      -20.4326293762  MEMB      256             0.0000000000
     30403       256  POPC      C15            47.0483240704      -29.0963401893      -17.8533919569  MEMB      256             0.0000000000
     30404       256  POPC      H15A           47.8075469982      -28.8379412771      -17.1300590336  MEMB      256             0.0000000000
     30405       256  POPC      H15B           47.3792745566      -29.9947114249      -18.3531927119  MEMB      256             0.0000000000
     30406       256  POPC      H15C           46.0888879539      -29.1780391095      -17.3643031577  MEMB      256             0.0000000000
     30407       256  POPC      C11            47.7895616428      -25.3821702252      -18.1427476806  MEMB      256             0.0000000000
     30408       256  POPC      H11A           48.8905506323      -25.5171645912      -18.0801314333  MEMB      256             0.0000000000
     30409       256  POPC      H11B           47.4534910494      -24.7422224191      -17.2990390737  MEMB      256             0.0000000000
     30410       256  POPC      P              46.5293880042      -23.5497200015      -19.6059124920  MEMB      256             0.0000000000
     30411       256  POPC      O13            45.5681092034      -23.6237813733      -20.7855525005  MEMB      256             0.0000000000
     30412       256  POPC      O14            47.3294775682      -22.2857676858      -19.5240606101  MEMB      256             0.0000000000
     30413       256  POPC      O12            47.4315496890      -24.8760430872      -19.3987147719  MEMB      256             0.0000000000
     30414       256  POPC      O11            45.6904927971      -23.6093901690      -18.2311423475  MEMB      256             0.0000000000
     30415       256  POPC      C1             44.4003162019      -22.9538351852      -18.0999835667  MEMB      256             0.0000000000
     30416       256  POPC      HA             43.7602363614      -23.1420788201      -18.9883432506  MEMB      256             0.0000000000
     30417       256  POPC      HB             44.5164505646      -21.8533014141      -18.0017017239  MEMB      256             0.0000000000
     30418       256  POPC      C2             43.6141818017      -23.5428650495      -16.9431964238  MEMB      256             0.0000000000
     30419       256  POPC      HS             42.5400403839      -23.2665691502      -17.0080142306  MEMB      256             0.0000000000
     30420       256  POPC      O21            44.1709291456      -23.0279413197      -15.7507218829  MEMB      256             0.0000000000
     30421       256  POPC      C21            43.4710773962      -22.2289511197      -14.9248805926  MEMB      256             0.0000000000
     30422       256  POPC      O22            42.5128860946      -21.5196035305      -15.2105494557  MEMB      256             0.0000000000
     30423       256  POPC      C22            44.2282022245      -22.1593767054      -13.5560399067  MEMB      256             0.0000000000
     30424       256  POPC      H2R            45.3240425511      -22.0179415034      -13.6720184280  MEMB      256             0.0000000000
     30425       256  POPC      H2S            44.0754192248      -23.0987596749      -12.9828572686  MEMB      256             0.0000000000
     30426       256  POPC      C3             43.6281345634      -25.0781292154      -16.8695824313  MEMB      256             0.0000000000
     30427       256  POPC      HX             44.3913091414      -25.3889443539      -17.6147534353  MEMB      256             0.0000000000
     30428       256  POPC      HY             42.6117990379      -25.4118621551      -17.1695912227  MEMB      256             0.0000000000
     30429       256  POPC      O31            43.9397537922      -25.5632504910      -15.5262882053  MEMB      256             0.0000000000
     30430       256  POPC      C31            44.3100177101      -26.8066640238      -15.3205080399  MEMB      256             0.0000000000
     30431       256  POPC      O32            44.0437262849      -27.7489687882      -16.0388794806  MEMB      256             0.0000000000
     30432       256  POPC      C32            45.0739396197      -27.0157053575      -14.0352910502  MEMB      256             0.0000000000
     30433       256  POPC      H2X            46.0999891743      -26.5928110911      -14.0872859133  MEMB      256             0.0000000000
     30434       256  POPC      H2Y            45.3187120526      -28.0808413229      -13.8355592717  MEMB      256             0.0000000000
     30435       256  POPC      C23            43.7172239455      -21.0792874805      -12.6324201355  MEMB      256             0.0000000000
     30436       256  POPC      H3R            42.6279604013      -20.8746194404      -12.5553705315  MEMB      256             0.0000000000
     30437       256  POPC      H3S            44.1918303602      -20.2136539862      -13.1420752815  MEMB      256             0.0000000000
     30438       256  POPC      C24            44.4445329653      -21.0531772153      -11.2907457707  MEMB      256             0.0000000000
     30439       256  POPC      H4R            44.2425342520      -20.0071321098      -10.9756152990  MEMB      256             0.0000000000
     30440       256  POPC      H4S            45.5185795591      -21.1743556335      -11.5477682471  MEMB      256             0.0000000000
     30441       256  POPC      C25            44.0965100678      -21.9783853110      -10.0968086815  MEMB      256             0.0000000000
     30442       256  POPC      H5R            43.9506148322      -23.0004993351      -10.5070749930  MEMB      256             0.0000000000
     30443       256  POPC      H5S            43.1476431393      -21.6045457922       -9.6561081616  MEMB      256             0.0000000000
     30444       256  POPC      C26            45.1790903804      -21.9289838212       -9.0205252131  MEMB      256             0.0000000000
     30445       256  POPC      H6R            45.1095156022      -20.9890591739       -8.4322882443  MEMB      256             0.0000000000
     30446       256  POPC      H6S            46.1244781090      -22.0718292013       -9.5863502570  MEMB      256             0.0000000000
     30447       256  POPC      C27            45.0631865987      -23.0075828112       -7.9678966436  MEMB      256             0.0000000000
     30448       256  POPC      H7R            45.5405819539      -23.9523326051       -8.3053320779  MEMB      256             0.0000000000
     30449       256  POPC      H7S            44.0459322451      -23.2523954316       -7.5942913207  MEMB      256             0.0000000000
     30450       256  POPC      C28            45.7363479597      -22.7566381466       -6.5903272205  MEMB      256             0.0000000000
     30451       256  POPC      H8R            45.5058087907      -23.5752798107       -5.8754856036  MEMB      256             0.0000000000
     30452       256  POPC      H8S            45.0280609841      -22.0086854573       -6.1741334437  MEMB      256             0.0000000000
     30453       256  POPC      C29            47.2075905411      -22.3595956238       -6.6729638798  MEMB      256             0.0000000000
     30454       256  POPC      H91            47.4055675873      -21.4047684211       -7.1819925521  MEMB      256             0.0000000000
     30455       256  POPC      C210           48.2917645755      -22.9374847619       -6.2125625028  MEMB      256             0.0000000000
     30456       256  POPC      H101           49.2077250307      -22.3326871966       -6.2849241116  MEMB      256             0.0000000000
     30457       256  POPC      C211           48.4315955351      -24.2267179436       -5.4566892009  MEMB      256             0.0000000000
     30458       256  POPC      H11R           49.1127947614      -24.9383787094       -5.9703302800  MEMB      256             0.0000000000
     30459       256  POPC      H11S           47.4080361221      -24.6550199126       -5.5132968209  MEMB      256             0.0000000000
     30460       256  POPC      C212           48.7321971759      -24.1733879770       -3.9807662709  MEMB      256             0.0000000000
     30461       256  POPC      H12R           49.6363517083      -23.5292153361       -3.9375590009  MEMB      256             0.0000000000
     30462       256  POPC      H12S           49.0449517611      -25.1379453831       -3.5267460694  MEMB      256             0.0000000000
     30463       256  POPC      C213           47.5610466036      -23.5549530730       -3.1149569697  MEMB      256             0.0000000000
     30464       256  POPC      H13R           46.9219745456      -24.3939562919       -2.7656990727  MEMB      256             0.0000000000
     30465       256  POPC      H13S           47.0425157389      -22.7715251715       -3.7079892067  MEMB      256             0.0000000000
     30466       256  POPC      C214           48.0480979690      -22.7745551951       -1.9128390410  MEMB      256             0.0000000000
     30467       256  POPC      H14R           48.8017439191      -21.9653657653       -2.0203147728  MEMB      256             0.0000000000
     30468       256  POPC      H14S           48.4446246497      -23.5477630422       -1.2205695449  MEMB      256             0.0000000000
     30469       256  POPC      C215           46.8606817658      -22.1829505328       -1.1085417565  MEMB      256             0.0000000000
     30470       256  POPC      H15R           46.2830021241      -22.9943215050       -0.6163170146  MEMB      256             0.0000000000
     30471       256  POPC      H15S           46.2109898037      -21.7838428952       -1.9165855137  MEMB      256             0.0000000000
     30472       256  POPC      C216           47.1467225044      -20.9765843433       -0.1682477206  MEMB      256             0.0000000000
     30473       256  POPC      H16R           46.1590164828      -20.6643046132        0.2332983214  MEMB      256             0.0000000000
     30474       256  POPC      H16S           47.4336980542      -20.0877337497       -0.7698383856  MEMB      256             0.0000000000
     30475       256  POPC      C217           48.1457647538      -21.0847943347        1.0603802365  MEMB      256             0.0000000000
     30476       256  POPC      H17R           48.6350415516      -20.1456362964        1.3964037712  MEMB      256             0.0000000000
     30477       256  POPC      H17S           48.8905431204      -21.8050507051        0.6593095876  MEMB      256             0.0000000000
     30478       256  POPC      C218           47.4478636926      -21.6908634775        2.2858375257  MEMB      256             0.0000000000
     30479       256  POPC      H18R           46.6812053453      -22.4672524574        2.0766094952  MEMB      256             0.0000000000
     30480       256  POPC      H18S           47.0072264583      -20.9033518293        2.9339016107  MEMB      256             0.0000000000
     30481       256  POPC      H18T           48.3064886906      -22.1156610519        2.8485386429  MEMB      256             0.0000000000
     30482       256  POPC      C33            44.2228406735      -26.5017947672      -12.7497700782  MEMB      256             0.0000000000
     30483       256  POPC      H3X            43.6667463936      -27.4086926200      -12.4294319713  MEMB      256             0.0000000000
     30484       256  POPC      H3Y            43.3578519861      -25.8440813253      -12.9811321898  MEMB      256             0.0000000000
     30485       256  POPC      C34            45.0274350644      -26.1794666595      -11.4496658464  MEMB      256             0.0000000000
     30486       256  POPC      H4X            44.5969877734      -25.4247236102      -10.7572792624  MEMB      256             0.0000000000
     30487       256  POPC      H4Y            45.9473074394      -25.6729166340      -11.8123818948  MEMB      256             0.0000000000
     30488       256  POPC      C35            45.5471519890      -27.4264787200      -10.7164291792  MEMB      256             0.0000000000
     30489       256  POPC      H5X            46.3772672247      -27.9470945608      -11.2400599701  MEMB      256             0.0000000000
     30490       256  POPC      H5Y            44.7159681585      -28.1217047381      -10.4712455046  MEMB      256             0.0000000000
     30491       256  POPC      C36            46.2059170079      -27.1239598944       -9.4023538995  MEMB      256             0.0000000000
     30492       256  POPC      H6X            45.5141694415      -26.8754272573       -8.5692642268  MEMB      256             0.0000000000
     30493       256  POPC      H6Y            46.8161249600      -26.2201949072       -9.6149002814  MEMB      256             0.0000000000
     30494       256  POPC      C37            47.1589627158      -28.2046685405       -8.8605745750  MEMB      256             0.0000000000
     30495       256  POPC      H7X            47.9098292844      -28.4485487074       -9.6422666693  MEMB      256             0.0000000000
     30496       256  POPC      H7Y            46.4537655338      -29.0374755542       -8.6521264786  MEMB      256             0.0000000000
     30497       256  POPC      C38            47.8531307472      -27.8406565954       -7.5223108150  MEMB      256             0.0000000000
     30498       256  POPC      H8X            48.6080251709      -27.0657115330       -7.7751259710  MEMB      256             0.0000000000
     30499       256  POPC      H8Y            48.3569032065      -28.7441300842       -7.1170078905  MEMB      256             0.0000000000
     30500       256  POPC      C39            46.9950046630      -27.2286575386       -6.4752313698  MEMB      256             0.0000000000
     30501       256  POPC      H9X            46.6256568615      -26.2974903623       -6.9556799224  MEMB      256             0.0000000000
     30502       256  POPC      H9Y            47.5888307224      -26.9064816652       -5.5932482591  MEMB      256             0.0000000000
     30503       256  POPC      C310           45.8560945659      -28.1926041471       -5.9864710922  MEMB      256             0.0000000000
     30504       256  POPC      H10X           46.3229592867      -29.2003318349       -6.0155124314  MEMB      256             0.0000000000
     30505       256  POPC      H10Y           45.0522419246      -28.2243084442       -6.7527192026  MEMB      256             0.0000000000
     30506       256  POPC      C311           45.4118736942      -27.8302047022       -4.5187565277  MEMB      256             0.0000000000
     30507       256  POPC      H11X           46.3164395578      -27.6469216704       -3.9002995417  MEMB      256             0.0000000000
     30508       256  POPC      H11Y           44.8019626394      -28.6277666353       -4.0431256410  MEMB      256             0.0000000000
     30509       256  POPC      C312           44.4667999975      -26.5469574031       -4.4333372862  MEMB      256             0.0000000000
     30510       256  POPC      H12X           43.5109590150      -26.7843072434       -4.9474898173  MEMB      256             0.0000000000
     30511       256  POPC      H12Y           44.9747638412      -25.6860339594       -4.9182131338  MEMB      256             0.0000000000
     30512       256  POPC      C313           44.1435890514      -26.3011256011       -2.9101614870  MEMB      256             0.0000000000
     30513       256  POPC      H13X           45.1246635729      -26.2361204101       -2.3928723618  MEMB      256             0.0000000000
     30514       256  POPC      H13Y           43.3630635622      -26.9918036781       -2.5253692252  MEMB      256             0.0000000000
     30515       256  POPC      C314           43.2098839119      -25.0981515266       -2.7265253398  MEMB      256             0.0000000000
     30516       256  POPC      H14X           43.0266041353      -24.9239911694       -1.6446759543  MEMB      256             0.0000000000
     30517       256  POPC      H14Y           42.2576253494      -25.2617479074       -3.2749416129  MEMB      256             0.0000000000
     30518       256  POPC      C315           43.8131089727      -23.8053010007       -3.2899355947  MEMB      256             0.0000000000
     30519       256  POPC      H15X           43.3325073988      -23.5912617383       -4.2684706773  MEMB      256             0.0000000000
     30520       256  POPC      H15Y           44.9001490113      -23.7730034766       -3.5171401933  MEMB      256             0.0000000000
     30521       256  POPC      C316           43.4416060521      -22.5997558726       -2.4187654014  MEMB      256             0.0000000000
     30522       256  POPC      H16X           43.7419130868      -21.6319463378       -2.8742663687  MEMB      256             0.0000000000
     30523       256  POPC      H16Y           43.8787701387      -22.7253185993       -1.4051357201  MEMB      256             0.0000000000
     30524       256  POPC      H16Z           42.3382809981      -22.4713308995       -2.3963656697  MEMB      256             0.0000000000
     30525       257  POPC      N             -10.3607234816      -54.0999534240      -20.2888467110  MEMB      257             0.0000000000
     30526       257  POPC      C12           -10.4894051354      -54.4044369238      -18.7073535006  MEMB      257             0.0000000000
     30527       257  POPC      H12A          -11.0602338225      -55.3170226195      -18.6193648728  MEMB      257             0.0000000000
     30528       257  POPC      H12B          -10.9189866004      -53.4855600390      -18.3365094955  MEMB      257             0.0000000000
     30529       257  POPC      C13           -10.1426235993      -55.4349872895      -21.0364639087  MEMB      257             0.0000000000
     30530       257  POPC      H13A          -10.1641310379      -55.3749443305      -22.1145791034  MEMB      257             0.0000000000
     30531       257  POPC      H13B           -9.1575618978      -55.7806385521      -20.7597353414  MEMB      257             0.0000000000
     30532       257  POPC      H13C          -10.8450220592      -56.1805170469      -20.6940873883  MEMB      257             0.0000000000
     30533       257  POPC      C14           -11.6054223471      -53.4679982914      -20.8511816637  MEMB      257             0.0000000000
     30534       257  POPC      H14A          -11.6848826630      -52.5118746332      -20.3552845636  MEMB      257             0.0000000000
     30535       257  POPC      H14B          -11.6889057597      -53.3946865408      -21.9254516638  MEMB      257             0.0000000000
     30536       257  POPC      H14C          -12.4217028548      -54.0724096221      -20.4840672951  MEMB      257             0.0000000000
     30537       257  POPC      C15            -9.1315083939      -53.1930666908      -20.4435729233  MEMB      257             0.0000000000
     30538       257  POPC      H15A           -8.2970427893      -53.8317104441      -20.1941712164  MEMB      257             0.0000000000
     30539       257  POPC      H15B           -9.1577939626      -52.3323190718      -19.7917887519  MEMB      257             0.0000000000
     30540       257  POPC      H15C           -9.1612115947      -52.8522959453      -21.4679718182  MEMB      257             0.0000000000
     30541       257  POPC      C11            -9.1777703965      -54.6710661558      -17.8698857093  MEMB      257             0.0000000000
     30542       257  POPC      H11A           -9.5368350753      -54.9885274429      -16.8675824432  MEMB      257             0.0000000000
     30543       257  POPC      H11B           -8.6021517524      -53.7208319595      -17.8636366636  MEMB      257             0.0000000000
     30544       257  POPC      P              -8.2485258673      -57.0973638332      -17.9617696538  MEMB      257             0.0000000000
     30545       257  POPC      O13            -7.1832850198      -57.1506194081      -16.8931822076  MEMB      257             0.0000000000
     30546       257  POPC      O14            -8.0790348184      -57.9774892856      -19.1287673701  MEMB      257             0.0000000000
     30547       257  POPC      O12            -8.2964023217      -55.5954563419      -18.4622908813  MEMB      257             0.0000000000
     30548       257  POPC      O11            -9.6581979327      -57.3702877580      -17.3566854750  MEMB      257             0.0000000000
     30549       257  POPC      C1            -10.3825517989      -58.5399877502      -17.7067191183  MEMB      257             0.0000000000
     30550       257  POPC      HA             -9.6320036135      -59.3557856878      -17.7806912951  MEMB      257             0.0000000000
     30551       257  POPC      HB            -10.8082419775      -58.3107758040      -18.7070044938  MEMB      257             0.0000000000
     30552       257  POPC      C2            -11.5311669327      -58.8720526506      -16.7068434139  MEMB      257             0.0000000000
     30553       257  POPC      HS            -12.2653036367      -59.5289667610      -17.2204861119  MEMB      257             0.0000000000
     30554       257  POPC      O21           -12.2574257194      -57.6491724191      -16.2543509648  MEMB      257             0.0000000000
     30555       257  POPC      C21           -12.9892470712      -57.0934172363      -17.1251054460  MEMB      257             0.0000000000
     30556       257  POPC      O22           -13.2270673886      -57.5317071578      -18.2398351249  MEMB      257             0.0000000000
     30557       257  POPC      C22           -13.6486737503      -55.8371957265      -16.6399160461  MEMB      257             0.0000000000
     30558       257  POPC      H2R           -14.7501673065      -55.9266081887      -16.5257295883  MEMB      257             0.0000000000
     30559       257  POPC      H2S           -13.4700131525      -55.0497025242      -17.4029731205  MEMB      257             0.0000000000
     30560       257  POPC      C3            -10.8905939252      -59.6686220456      -15.5137885214  MEMB      257             0.0000000000
     30561       257  POPC      HX            -10.5124980593      -60.6576232040      -15.8503024063  MEMB      257             0.0000000000
     30562       257  POPC      HY            -11.7182578944      -59.8646631297      -14.7990426868  MEMB      257             0.0000000000
     30563       257  POPC      O31            -9.7730091980      -58.9546537735      -15.0261756179  MEMB      257             0.0000000000
     30564       257  POPC      C31            -9.9650541997      -58.2695219494      -13.9445374830  MEMB      257             0.0000000000
     30565       257  POPC      O32           -10.8213483973      -58.3555509991      -13.1090609738  MEMB      257             0.0000000000
     30566       257  POPC      C32            -8.8495833460      -57.3040426823      -13.7290945554  MEMB      257             0.0000000000
     30567       257  POPC      H2X            -8.3060435320      -57.2355288735      -14.6956302167  MEMB      257             0.0000000000
     30568       257  POPC      H2Y            -8.1968565936      -57.5746465674      -12.8717483699  MEMB      257             0.0000000000
     30569       257  POPC      C23           -12.9278507754      -55.2786941933      -15.3815418386  MEMB      257             0.0000000000
     30570       257  POPC      H3R           -11.8199953622      -55.2571012078      -15.4622325281  MEMB      257             0.0000000000
     30571       257  POPC      H3S           -13.3219678197      -55.8220068257      -14.4962148230  MEMB      257             0.0000000000
     30572       257  POPC      C24           -13.2885348449      -53.7595477085      -15.0642857413  MEMB      257             0.0000000000
     30573       257  POPC      H4R           -14.3862321784      -53.6899438070      -14.9076431679  MEMB      257             0.0000000000
     30574       257  POPC      H4S           -13.1440335749      -53.2060811769      -16.0167115866  MEMB      257             0.0000000000
     30575       257  POPC      C25           -12.5336717445      -53.0667343796      -13.9430182435  MEMB      257             0.0000000000
     30576       257  POPC      H5R           -13.0821661103      -52.1669673496      -13.5910326020  MEMB      257             0.0000000000
     30577       257  POPC      H5S           -11.4772541892      -52.8809178151      -14.2324578933  MEMB      257             0.0000000000
     30578       257  POPC      C26           -12.4418457813      -53.9821383348      -12.6739715152  MEMB      257             0.0000000000
     30579       257  POPC      H6R           -11.9233254767      -54.9041275019      -13.0136683602  MEMB      257             0.0000000000
     30580       257  POPC      H6S           -13.4246860668      -54.1944424606      -12.2014535439  MEMB      257             0.0000000000
     30581       257  POPC      C27           -11.6497740192      -53.1975303059      -11.6051623588  MEMB      257             0.0000000000
     30582       257  POPC      H7R           -12.1464670495      -52.2124385350      -11.4739704888  MEMB      257             0.0000000000
     30583       257  POPC      H7S           -10.6982169305      -52.8834080963      -12.0849407590  MEMB      257             0.0000000000
     30584       257  POPC      C28           -11.4068420080      -53.9457972154      -10.2859988082  MEMB      257             0.0000000000
     30585       257  POPC      H8R           -10.7453742547      -53.2432481441       -9.7353571585  MEMB      257             0.0000000000
     30586       257  POPC      H8S           -10.7760210794      -54.8121697484      -10.5788885148  MEMB      257             0.0000000000
     30587       257  POPC      C29           -12.5579743755      -54.4982432750       -9.5062851893  MEMB      257             0.0000000000
     30588       257  POPC      H91           -13.1662754401      -53.7667561233       -8.9541109656  MEMB      257             0.0000000000
     30589       257  POPC      C210          -12.8871745108      -55.8391310009       -9.3422516465  MEMB      257             0.0000000000
     30590       257  POPC      H101          -13.7336154861      -56.1869411610       -8.7318709031  MEMB      257             0.0000000000
     30591       257  POPC      C211          -12.1256743033      -57.0806853697       -9.8422927170  MEMB      257             0.0000000000
     30592       257  POPC      H11R          -11.7022158340      -56.7379884948      -10.8105715094  MEMB      257             0.0000000000
     30593       257  POPC      H11S          -12.7650635675      -57.9631098453      -10.0586938551  MEMB      257             0.0000000000
     30594       257  POPC      C212          -10.9456838242      -57.2258846243       -8.9268356587  MEMB      257             0.0000000000
     30595       257  POPC      H12R          -10.3255212229      -56.3228538599       -8.7417546851  MEMB      257             0.0000000000
     30596       257  POPC      H12S          -10.2355681770      -57.9004566986       -9.4512487015  MEMB      257             0.0000000000
     30597       257  POPC      C213          -11.3570455614      -58.0462241223       -7.7243622802  MEMB      257             0.0000000000
     30598       257  POPC      H13R          -11.9141670154      -58.9369815330       -8.0855935911  MEMB      257             0.0000000000
     30599       257  POPC      H13S          -12.0766388975      -57.5144537045       -7.0657831200  MEMB      257             0.0000000000
     30600       257  POPC      C214          -10.2114820928      -58.4664662157       -6.8347651106  MEMB      257             0.0000000000
     30601       257  POPC      H14R           -9.4840305262      -57.6796988756       -6.5412819194  MEMB      257             0.0000000000
     30602       257  POPC      H14S           -9.6807504020      -59.2263210071       -7.4473545526  MEMB      257             0.0000000000
     30603       257  POPC      C215          -10.6209560972      -58.9550257526       -5.4520869238  MEMB      257             0.0000000000
     30604       257  POPC      H15R           -9.7384584402      -59.1632491356       -4.8100883426  MEMB      257             0.0000000000
     30605       257  POPC      H15S          -11.1206886128      -59.9464450031       -5.4930267579  MEMB      257             0.0000000000
     30606       257  POPC      C216          -11.6115637079      -58.0971237634       -4.6622731154  MEMB      257             0.0000000000
     30607       257  POPC      H16R          -12.6006201153      -58.2260594451       -5.1516240039  MEMB      257             0.0000000000
     30608       257  POPC      H16S          -11.3163602651      -57.0390719062       -4.8287132546  MEMB      257             0.0000000000
     30609       257  POPC      C217          -11.9025648621      -58.3825468582       -3.1601747558  MEMB      257             0.0000000000
     30610       257  POPC      H17R          -12.6308905756      -57.5821946661       -2.9085816657  MEMB      257             0.0000000000
     30611       257  POPC      H17S          -10.9748117277      -58.2243874417       -2.5697668195  MEMB      257             0.0000000000
     30612       257  POPC      C218          -12.5047719903      -59.7809607286       -2.7207136306  MEMB      257             0.0000000000
     30613       257  POPC      H18R          -13.6083140908      -59.6857111576       -2.6344439331  MEMB      257             0.0000000000
     30614       257  POPC      H18S          -12.1803985620      -60.2112261074       -1.7491315440  MEMB      257             0.0000000000
     30615       257  POPC      H18T          -12.1863831268      -60.4877558490       -3.5165732856  MEMB      257             0.0000000000
     30616       257  POPC      C33            -9.4907876356      -55.9392432217      -13.3099424258  MEMB      257             0.0000000000
     30617       257  POPC      H3X           -10.1702488223      -56.0837471645      -12.4428948804  MEMB      257             0.0000000000
     30618       257  POPC      H3Y            -9.9271882662      -55.4553615895      -14.2097946747  MEMB      257             0.0000000000
     30619       257  POPC      C34            -8.4430217522      -54.9930439941      -12.8018179048  MEMB      257             0.0000000000
     30620       257  POPC      H4X            -9.0773533059      -54.1009987714      -12.6115548934  MEMB      257             0.0000000000
     30621       257  POPC      H4Y            -7.6481075638      -54.7519249514      -13.5395806817  MEMB      257             0.0000000000
     30622       257  POPC      C35            -7.7269907020      -55.3304150855      -11.4631283044  MEMB      257             0.0000000000
     30623       257  POPC      H5X            -6.8892624288      -56.0580229848      -11.5189774970  MEMB      257             0.0000000000
     30624       257  POPC      H5Y            -8.4769988402      -55.8425440721      -10.8231809401  MEMB      257             0.0000000000
     30625       257  POPC      C36            -7.2840563098      -54.0435429663      -10.6761586454  MEMB      257             0.0000000000
     30626       257  POPC      H6X            -8.1029959340      -53.4657576095      -10.1967599594  MEMB      257             0.0000000000
     30627       257  POPC      H6Y            -6.8155089105      -53.4055313078      -11.4557263762  MEMB      257             0.0000000000
     30628       257  POPC      C37            -6.3291514446      -54.3270653457       -9.4999420457  MEMB      257             0.0000000000
     30629       257  POPC      H7X            -5.8884426866      -53.3814151917       -9.1180485077  MEMB      257             0.0000000000
     30630       257  POPC      H7Y            -5.5336721354      -54.9715798431       -9.9313759599  MEMB      257             0.0000000000
     30631       257  POPC      C38            -7.0049990505      -55.1218932485       -8.3813218090  MEMB      257             0.0000000000
     30632       257  POPC      H8X            -7.5805016549      -55.9506197573       -8.8464354943  MEMB      257             0.0000000000
     30633       257  POPC      H8Y            -7.7547561791      -54.3979813512       -7.9964361685  MEMB      257             0.0000000000
     30634       257  POPC      C39            -6.0659493229      -55.6532944339       -7.2393991378  MEMB      257             0.0000000000
     30635       257  POPC      H9X            -5.4642447954      -54.8050615747       -6.8485359608  MEMB      257             0.0000000000
     30636       257  POPC      H9Y            -5.2503198518      -56.3021817289       -7.6241264150  MEMB      257             0.0000000000
     30637       257  POPC      C310           -6.8463873893      -56.2107851377       -6.0010628393  MEMB      257             0.0000000000
     30638       257  POPC      H10X           -6.2083625138      -56.7516050150       -5.2697907632  MEMB      257             0.0000000000
     30639       257  POPC      H10Y           -7.5716444218      -56.9692117066       -6.3659088423  MEMB      257             0.0000000000
     30640       257  POPC      C311           -7.4370681331      -55.1330041402       -5.2264847595  MEMB      257             0.0000000000
     30641       257  POPC      H11X           -8.1749871269      -54.5402576119       -5.8082473480  MEMB      257             0.0000000000
     30642       257  POPC      H11Y           -6.7690701554      -54.3561797999       -4.7967826897  MEMB      257             0.0000000000
     30643       257  POPC      C312           -8.2050892477      -55.7315281976       -3.9860084656  MEMB      257             0.0000000000
     30644       257  POPC      H12X           -7.4878514861      -56.4487452890       -3.5326983568  MEMB      257             0.0000000000
     30645       257  POPC      H12Y           -9.0903017370      -56.3535752866       -4.2385515197  MEMB      257             0.0000000000
     30646       257  POPC      C313           -8.6177143586      -54.6424476009       -2.9511526546  MEMB      257             0.0000000000
     30647       257  POPC      H13X           -9.1572770363      -53.8099071765       -3.4512224616  MEMB      257             0.0000000000
     30648       257  POPC      H13Y           -7.6651999698      -54.2433149221       -2.5416036824  MEMB      257             0.0000000000
     30649       257  POPC      C314           -9.4686357815      -55.0635578327       -1.6565237039  MEMB      257             0.0000000000
     30650       257  POPC      H14X          -10.4907745951      -54.9311572664       -2.0712810184  MEMB      257             0.0000000000
     30651       257  POPC      H14Y           -9.2342224854      -54.4245489084       -0.7784349413  MEMB      257             0.0000000000
     30652       257  POPC      C315           -9.1368554000      -56.4347745099       -1.1317033027  MEMB      257             0.0000000000
     30653       257  POPC      H15X           -8.1038192816      -56.5348563284       -0.7352928094  MEMB      257             0.0000000000
     30654       257  POPC      H15Y           -9.2203983963      -57.1490994947       -1.9785099431  MEMB      257             0.0000000000
     30655       257  POPC      C316          -10.1341085294      -56.8013796640       -0.0186194642  MEMB      257             0.0000000000
     30656       257  POPC      H16X          -10.2131228110      -57.9055603428        0.0755197041  MEMB      257             0.0000000000
     30657       257  POPC      H16Y          -11.1267234773      -56.4009227789       -0.3163953378  MEMB      257             0.0000000000
     30658       257  POPC      H16Z           -9.7260069450      -56.3952963688        0.9315751141  MEMB      257             0.0000000000
     30659       258  POPC      N             -52.3171803348       -7.9340717728      -19.5371894959  MEMB      258             0.0000000000
     30660       258  POPC      C12           -53.2199180749       -7.8746164717      -18.2661617348  MEMB      258             0.0000000000
     30661       258  POPC      H12A          -52.8166578464       -7.1139768093      -17.6140815499  MEMB      258             0.0000000000
     30662       258  POPC      H12B          -53.1605045068       -8.8150982522      -17.7385596549  MEMB      258             0.0000000000
     30663       258  POPC      C13           -50.9081580343       -7.9564335828      -19.0252961653  MEMB      258             0.0000000000
     30664       258  POPC      H13A          -50.2847489609       -8.0407297692      -19.9031660528  MEMB      258             0.0000000000
     30665       258  POPC      H13B          -50.6238544810       -7.0718376471      -18.4747860013  MEMB      258             0.0000000000
     30666       258  POPC      H13C          -50.7471007159       -8.8481638139      -18.4376927002  MEMB      258             0.0000000000
     30667       258  POPC      C14           -52.5168190847       -9.1760656107      -20.3359670223  MEMB      258             0.0000000000
     30668       258  POPC      H14A          -52.2629938531      -10.0880005312      -19.8160175649  MEMB      258             0.0000000000
     30669       258  POPC      H14B          -53.5285209242       -9.3568289659      -20.6679066723  MEMB      258             0.0000000000
     30670       258  POPC      H14C          -51.8682205322       -9.1126897544      -21.1971890868  MEMB      258             0.0000000000
     30671       258  POPC      C15           -52.5379167165       -6.7265085057      -20.4669997593  MEMB      258             0.0000000000
     30672       258  POPC      H15A          -52.3433479844       -5.8931779987      -19.8081343975  MEMB      258             0.0000000000
     30673       258  POPC      H15B          -53.5169551675       -6.7189055327      -20.9228791118  MEMB      258             0.0000000000
     30674       258  POPC      H15C          -51.7378993835       -6.6906762709      -21.1916293784  MEMB      258             0.0000000000
     30675       258  POPC      C11           -54.7220857896       -7.5907266070      -18.4316280830  MEMB      258             0.0000000000
     30676       258  POPC      H11A          -54.8151622520       -6.5615277277      -18.8395586807  MEMB      258             0.0000000000
     30677       258  POPC      H11B          -55.2696641165       -7.6288497490      -17.4656956161  MEMB      258             0.0000000000
     30678       258  POPC      P             -56.1927097241       -9.8783969278      -18.5945203946  MEMB      258             0.0000000000
     30679       258  POPC      O13           -55.2295816274      -10.6294082995      -17.7413106374  MEMB      258             0.0000000000
     30680       258  POPC      O14           -56.7942435136      -10.5570328366      -19.7373161386  MEMB      258             0.0000000000
     30681       258  POPC      O12           -55.3546022557       -8.5519430558      -19.2455437603  MEMB      258             0.0000000000
     30682       258  POPC      O11           -57.2479306454       -9.2832520197      -17.6180668104  MEMB      258             0.0000000000
     30683       258  POPC      C1            -57.8528840368      -10.3548036382      -16.7559458146  MEMB      258             0.0000000000
     30684       258  POPC      HA            -57.0972211110      -10.7320293474      -16.0341459784  MEMB      258             0.0000000000
     30685       258  POPC      HB            -58.2675477772      -11.2017118601      -17.3434160301  MEMB      258             0.0000000000
     30686       258  POPC      C2            -58.9632506777       -9.6442654073      -15.9207697771  MEMB      258             0.0000000000
     30687       258  POPC      HS            -59.7973341296       -9.3158711247      -16.5771103936  MEMB      258             0.0000000000
     30688       258  POPC      O21           -58.3735898167       -8.4880371701      -15.2838639228  MEMB      258             0.0000000000
     30689       258  POPC      C21           -58.9733637456       -7.8775917825      -14.2636523210  MEMB      258             0.0000000000
     30690       258  POPC      O22           -60.0711960006       -8.1217226911      -13.8509380781  MEMB      258             0.0000000000
     30691       258  POPC      C22           -57.9845714325       -6.9390592787      -13.4951849546  MEMB      258             0.0000000000
     30692       258  POPC      H2R           -58.4868312751       -6.5654466997      -12.5773236932  MEMB      258             0.0000000000
     30693       258  POPC      H2S           -57.9248770722       -6.0782444218      -14.1950103384  MEMB      258             0.0000000000
     30694       258  POPC      C3            -59.5972061041      -10.7009952698      -14.9364257421  MEMB      258             0.0000000000
     30695       258  POPC      HX            -60.0928231154      -11.5168315944      -15.5048409622  MEMB      258             0.0000000000
     30696       258  POPC      HY            -60.3108794589      -10.4178370714      -14.1334233910  MEMB      258             0.0000000000
     30697       258  POPC      O31           -58.5582685416      -11.3541590710      -14.2504496195  MEMB      258             0.0000000000
     30698       258  POPC      C31           -58.3785212806      -11.2501081517      -12.8773756772  MEMB      258             0.0000000000
     30699       258  POPC      O32           -59.0451014215      -10.6416282762      -12.1061380962  MEMB      258             0.0000000000
     30700       258  POPC      C32           -57.1988769164      -12.1653707299      -12.4436375938  MEMB      258             0.0000000000
     30701       258  POPC      H2X           -56.3786446457      -12.0739814183      -13.1874037281  MEMB      258             0.0000000000
     30702       258  POPC      H2Y           -57.6723957783      -13.1682917931      -12.5088293963  MEMB      258             0.0000000000
     30703       258  POPC      C23           -56.5808677962       -7.5852980721      -13.2051440700  MEMB      258             0.0000000000
     30704       258  POPC      H3R           -56.0314383888       -7.4511666182      -14.1614167746  MEMB      258             0.0000000000
     30705       258  POPC      H3S           -56.7795064087       -8.6755137641      -13.1258133129  MEMB      258             0.0000000000
     30706       258  POPC      C24           -55.8449323767       -7.0873720347      -12.0430152569  MEMB      258             0.0000000000
     30707       258  POPC      H4R           -56.5155539074       -7.0857687881      -11.1572470924  MEMB      258             0.0000000000
     30708       258  POPC      H4S           -55.6482401884       -5.9941128876      -12.0225839213  MEMB      258             0.0000000000
     30709       258  POPC      C25           -54.5818417379       -7.8862799153      -11.8721105716  MEMB      258             0.0000000000
     30710       258  POPC      H5R           -53.8289640103       -7.6545153480      -12.6555528997  MEMB      258             0.0000000000
     30711       258  POPC      H5S           -54.7990127057       -8.9739849900      -11.9357935640  MEMB      258             0.0000000000
     30712       258  POPC      C26           -53.9718388136       -7.6797472085      -10.4122605785  MEMB      258             0.0000000000
     30713       258  POPC      H6R           -54.7377078319       -8.0433121635       -9.6942176577  MEMB      258             0.0000000000
     30714       258  POPC      H6S           -53.8010338380       -6.5998531508      -10.2148381354  MEMB      258             0.0000000000
     30715       258  POPC      C27           -52.7001316881       -8.4109170134      -10.3272728073  MEMB      258             0.0000000000
     30716       258  POPC      H7R           -52.0257414497       -8.1400808185      -11.1676100438  MEMB      258             0.0000000000
     30717       258  POPC      H7S           -52.9332255459       -9.4962858241      -10.2829699200  MEMB      258             0.0000000000
     30718       258  POPC      C28           -52.0554778778       -8.0380771822       -8.9571591658  MEMB      258             0.0000000000
     30719       258  POPC      H8R           -52.7643431778       -8.0438082401       -8.1017073087  MEMB      258             0.0000000000
     30720       258  POPC      H8S           -51.6412335330       -7.0178840809       -9.1052432846  MEMB      258             0.0000000000
     30721       258  POPC      C29           -50.9234646138       -9.0335411861       -8.8662402611  MEMB      258             0.0000000000
     30722       258  POPC      H91           -49.9745296297       -8.7766983403       -9.3597518787  MEMB      258             0.0000000000
     30723       258  POPC      C210          -51.0895184919      -10.1422351325       -8.1541040550  MEMB      258             0.0000000000
     30724       258  POPC      H101          -50.2833899010      -10.8880060293       -8.2172082253  MEMB      258             0.0000000000
     30725       258  POPC      C211          -52.2488201442      -10.6424901278       -7.3372830150  MEMB      258             0.0000000000
     30726       258  POPC      H11R          -52.6459694361      -11.6594666586       -7.5430801183  MEMB      258             0.0000000000
     30727       258  POPC      H11S          -53.1759823216      -10.0480584073       -7.4833740175  MEMB      258             0.0000000000
     30728       258  POPC      C212          -51.8412330366      -10.6450286939       -5.9092395330  MEMB      258             0.0000000000
     30729       258  POPC      H12R          -51.8774295488       -9.5821346624       -5.5878876619  MEMB      258             0.0000000000
     30730       258  POPC      H12S          -50.8308394671      -11.0584232053       -5.7030086037  MEMB      258             0.0000000000
     30731       258  POPC      C213          -52.9105100950      -11.3893705206       -5.0054481283  MEMB      258             0.0000000000
     30732       258  POPC      H13R          -52.8793860449      -12.3495835608       -5.5634287621  MEMB      258             0.0000000000
     30733       258  POPC      H13S          -53.9329141789      -10.9638266532       -5.0944620581  MEMB      258             0.0000000000
     30734       258  POPC      C214          -52.5170846580      -11.3277336306       -3.5376374528  MEMB      258             0.0000000000
     30735       258  POPC      H14R          -51.5164783451      -11.7998132708       -3.4363989226  MEMB      258             0.0000000000
     30736       258  POPC      H14S          -53.1554266819      -12.1193624351       -3.0902391403  MEMB      258             0.0000000000
     30737       258  POPC      C215          -52.6272000787       -9.9786225523       -2.9307411298  MEMB      258             0.0000000000
     30738       258  POPC      H15R          -53.6281468995       -9.6045377524       -3.2348579902  MEMB      258             0.0000000000
     30739       258  POPC      H15S          -51.8769395423       -9.2444156083       -3.2945677598  MEMB      258             0.0000000000
     30740       258  POPC      C216          -52.5519245295      -10.0399789076       -1.3869255296  MEMB      258             0.0000000000
     30741       258  POPC      H16R          -51.5288999766      -10.3544334178       -1.0888324080  MEMB      258             0.0000000000
     30742       258  POPC      H16S          -53.1758492335      -10.8530299446       -0.9579897020  MEMB      258             0.0000000000
     30743       258  POPC      C217          -52.7350930017       -8.6880642491       -0.6923721201  MEMB      258             0.0000000000
     30744       258  POPC      H17R          -53.7005851557       -8.1807348074       -0.9039437435  MEMB      258             0.0000000000
     30745       258  POPC      H17S          -51.9594589983       -7.9743342371       -1.0435156899  MEMB      258             0.0000000000
     30746       258  POPC      C218          -52.6102189984       -8.8920389532        0.7926444016  MEMB      258             0.0000000000
     30747       258  POPC      H18R          -52.5322846938       -7.9598517091        1.3920392274  MEMB      258             0.0000000000
     30748       258  POPC      H18S          -51.6580532506       -9.4386877607        0.9625746221  MEMB      258             0.0000000000
     30749       258  POPC      H18T          -53.4217004850       -9.5481064988        1.1739490700  MEMB      258             0.0000000000
     30750       258  POPC      C33           -56.7935617331      -11.9675550876      -10.9488595829  MEMB      258             0.0000000000
     30751       258  POPC      H3X           -56.9221296915      -10.8799671639      -10.7619268316  MEMB      258             0.0000000000
     30752       258  POPC      H3Y           -55.7103203286      -12.1765355454      -10.8175731336  MEMB      258             0.0000000000
     30753       258  POPC      C34           -57.6325559839      -12.7214389832       -9.8413613601  MEMB      258             0.0000000000
     30754       258  POPC      H4X           -57.5566997866      -13.8009767940      -10.0926873530  MEMB      258             0.0000000000
     30755       258  POPC      H4Y           -58.7029472939      -12.4251647340       -9.8697339818  MEMB      258             0.0000000000
     30756       258  POPC      C35           -57.1097551835      -12.4202105065       -8.3775386871  MEMB      258             0.0000000000
     30757       258  POPC      H5X           -56.1995913480      -13.0351989804       -8.2110693345  MEMB      258             0.0000000000
     30758       258  POPC      H5Y           -57.8247836683      -12.8563767341       -7.6475964416  MEMB      258             0.0000000000
     30759       258  POPC      C36           -56.7953806487      -10.9438330932       -8.0254815890  MEMB      258             0.0000000000
     30760       258  POPC      H6X           -56.1003926621      -10.5057606639       -8.7734153617  MEMB      258             0.0000000000
     30761       258  POPC      H6Y           -56.1384474457      -10.9570097059       -7.1296091111  MEMB      258             0.0000000000
     30762       258  POPC      C37           -58.0661391664      -10.1167941074       -7.9624566588  MEMB      258             0.0000000000
     30763       258  POPC      H7X           -58.7542070415      -10.4793730300       -7.1690971218  MEMB      258             0.0000000000
     30764       258  POPC      H7Y           -58.5726900948      -10.2956908593       -8.9349392308  MEMB      258             0.0000000000
     30765       258  POPC      C38           -57.8175324181       -8.5973750108       -7.6491633765  MEMB      258             0.0000000000
     30766       258  POPC      H8X           -58.8113395399       -8.1167166857       -7.5241179988  MEMB      258             0.0000000000
     30767       258  POPC      H8Y           -57.3091008334       -8.1579696592       -8.5338895056  MEMB      258             0.0000000000
     30768       258  POPC      C39           -56.9545736398       -8.0968273658       -6.4921394856  MEMB      258             0.0000000000
     30769       258  POPC      H9X           -56.8921051296       -6.9876950703       -6.4765077887  MEMB      258             0.0000000000
     30770       258  POPC      H9Y           -55.9378848056       -8.5297478200       -6.6072253769  MEMB      258             0.0000000000
     30771       258  POPC      C310          -57.5898508069       -8.5295892868       -5.0839214839  MEMB      258             0.0000000000
     30772       258  POPC      H10X          -57.9652060532       -9.5582803065       -5.2716029193  MEMB      258             0.0000000000
     30773       258  POPC      H10Y          -58.4566505058       -7.8474591428       -4.9509622071  MEMB      258             0.0000000000
     30774       258  POPC      C311          -56.6790518022       -8.5899154922       -3.8985179205  MEMB      258             0.0000000000
     30775       258  POPC      H11X          -56.1680726808       -7.6040105375       -3.9333421254  MEMB      258             0.0000000000
     30776       258  POPC      H11Y          -55.8328592516       -9.2918725363       -4.0583155421  MEMB      258             0.0000000000
     30777       258  POPC      C312          -57.3670945062       -8.8448691135       -2.5672945850  MEMB      258             0.0000000000
     30778       258  POPC      H12X          -56.6134980225       -9.5285757712       -2.1212476496  MEMB      258             0.0000000000
     30779       258  POPC      H12Y          -58.3411383357       -9.3619169380       -2.7022810800  MEMB      258             0.0000000000
     30780       258  POPC      C313          -57.4877050541       -7.4831117630       -1.7325853303  MEMB      258             0.0000000000
     30781       258  POPC      H13X          -58.4728430910       -6.9840720815       -1.8541720374  MEMB      258             0.0000000000
     30782       258  POPC      H13Y          -56.5895649012       -6.8986176552       -2.0258971169  MEMB      258             0.0000000000
     30783       258  POPC      C314          -57.3819114314       -7.8074533276       -0.2343694976  MEMB      258             0.0000000000
     30784       258  POPC      H14X          -56.9755291476       -8.8401881009       -0.1830527078  MEMB      258             0.0000000000
     30785       258  POPC      H14Y          -58.4230782081       -7.7989309911        0.1532121897  MEMB      258             0.0000000000
     30786       258  POPC      C315          -56.5219487841       -6.7601804408        0.5354652167  MEMB      258             0.0000000000
     30787       258  POPC      H15X          -56.7919374330       -5.7444273489        0.1753635164  MEMB      258             0.0000000000
     30788       258  POPC      H15Y          -55.4494514104       -6.9427674966        0.3102260596  MEMB      258             0.0000000000
     30789       258  POPC      C316          -56.6425967317       -6.7222540318        2.0716037429  MEMB      258             0.0000000000
     30790       258  POPC      H16X          -56.3815085741       -7.7125507421        2.5022627516  MEMB      258             0.0000000000
     30791       258  POPC      H16Y          -57.6666032365       -6.4095963145        2.3682130139  MEMB      258             0.0000000000
     30792       258  POPC      H16Z          -55.9522780772       -5.8928315483        2.3358763947  MEMB      258             0.0000000000
     30793       259  POPC      N             -15.3312094352      -51.1079683582      -18.3285459493  MEMB      259             0.0000000000
     30794       259  POPC      C12           -15.9355039070      -52.2519161463      -17.5391459640  MEMB      259             0.0000000000
     30795       259  POPC      H12A          -15.8915686540      -51.9665257825      -16.4984625955  MEMB      259             0.0000000000
     30796       259  POPC      H12B          -15.2858699642      -53.1096674722      -17.6320885764  MEMB      259             0.0000000000
     30797       259  POPC      C13           -15.4625269304      -51.4265928729      -19.8314082846  MEMB      259             0.0000000000
     30798       259  POPC      H13A          -15.0783609882      -52.3997116751      -20.0994686299  MEMB      259             0.0000000000
     30799       259  POPC      H13B          -16.5409943586      -51.3859886886      -19.8721437177  MEMB      259             0.0000000000
     30800       259  POPC      H13C          -14.9816426811      -50.6220414073      -20.3679221593  MEMB      259             0.0000000000
     30801       259  POPC      C14           -16.0444438953      -49.8449450939      -18.0891154800  MEMB      259             0.0000000000
     30802       259  POPC      H14A          -17.1024845467      -49.9881966046      -18.2516856439  MEMB      259             0.0000000000
     30803       259  POPC      H14B          -15.8936335639      -49.4526651270      -17.0942422719  MEMB      259             0.0000000000
     30804       259  POPC      H14C          -15.7346249705      -49.0917306561      -18.7983970365  MEMB      259             0.0000000000
     30805       259  POPC      C15           -13.8598675604      -50.8720996524      -17.9794168634  MEMB      259             0.0000000000
     30806       259  POPC      H15A          -13.5955069415      -49.8473698617      -18.1949219684  MEMB      259             0.0000000000
     30807       259  POPC      H15B          -13.2647757019      -51.6630494350      -18.4114633163  MEMB      259             0.0000000000
     30808       259  POPC      H15C          -13.7965773978      -51.1211447591      -16.9304311920  MEMB      259             0.0000000000
     30809       259  POPC      C11           -17.3502167108      -52.7310041003      -17.7828819735  MEMB      259             0.0000000000
     30810       259  POPC      H11A          -18.0117423172      -51.8649912082      -17.5667187490  MEMB      259             0.0000000000
     30811       259  POPC      H11B          -17.4913914094      -53.5757199527      -17.0751773455  MEMB      259             0.0000000000
     30812       259  POPC      P             -18.9208843757      -52.9321263584      -19.9364394241  MEMB      259             0.0000000000
     30813       259  POPC      O13           -18.6032574898      -53.4989712539      -21.2477117874  MEMB      259             0.0000000000
     30814       259  POPC      O14           -19.3639051678      -51.5373706648      -19.9291547858  MEMB      259             0.0000000000
     30815       259  POPC      O12           -17.5833704837      -53.0953472868      -19.1471841257  MEMB      259             0.0000000000
     30816       259  POPC      O11           -19.8684176263      -53.9283297936      -19.1889953662  MEMB      259             0.0000000000
     30817       259  POPC      C1            -19.4981398972      -55.2362064879      -18.8343268068  MEMB      259             0.0000000000
     30818       259  POPC      HA            -18.5355714010      -55.1406137174      -18.2878424734  MEMB      259             0.0000000000
     30819       259  POPC      HB            -19.3471989532      -55.9093367062      -19.7052076222  MEMB      259             0.0000000000
     30820       259  POPC      C2            -20.5381663503      -55.8797359118      -17.8400285138  MEMB      259             0.0000000000
     30821       259  POPC      HS            -21.4803469316      -56.0239697617      -18.4108292261  MEMB      259             0.0000000000
     30822       259  POPC      O21           -20.5428728163      -54.9998363505      -16.7236631746  MEMB      259             0.0000000000
     30823       259  POPC      C21           -21.4168924771      -55.1895356291      -15.7652090497  MEMB      259             0.0000000000
     30824       259  POPC      O22           -22.4355362931      -55.8389244829      -15.8630331569  MEMB      259             0.0000000000
     30825       259  POPC      C22           -20.9747634539      -54.4692763302      -14.5236490576  MEMB      259             0.0000000000
     30826       259  POPC      H2R           -20.8680383059      -53.3670909008      -14.6137494929  MEMB      259             0.0000000000
     30827       259  POPC      H2S           -20.0485949079      -54.9160564027      -14.1030298145  MEMB      259             0.0000000000
     30828       259  POPC      C3            -19.9594974581      -57.3147035442      -17.4759865618  MEMB      259             0.0000000000
     30829       259  POPC      HX            -19.9395453211      -57.8831318189      -18.4303515615  MEMB      259             0.0000000000
     30830       259  POPC      HY            -20.7586861179      -57.7438450920      -16.8345380681  MEMB      259             0.0000000000
     30831       259  POPC      O31           -18.7336758851      -57.1742962620      -16.7588364337  MEMB      259             0.0000000000
     30832       259  POPC      C31           -18.7409828729      -57.4686294182      -15.4320841420  MEMB      259             0.0000000000
     30833       259  POPC      O32           -19.7027150127      -57.8958804029      -14.7811706881  MEMB      259             0.0000000000
     30834       259  POPC      C32           -17.3945672005      -57.0971833347      -14.8777589750  MEMB      259             0.0000000000
     30835       259  POPC      H2X           -16.7376435937      -57.9865666044      -14.9862467437  MEMB      259             0.0000000000
     30836       259  POPC      H2Y           -17.4332732354      -56.9020462055      -13.7847154149  MEMB      259             0.0000000000
     30837       259  POPC      C23           -22.0652711520      -54.6837393641      -13.3836488876  MEMB      259             0.0000000000
     30838       259  POPC      H3R           -23.0493525373      -54.3876440564      -13.8058248768  MEMB      259             0.0000000000
     30839       259  POPC      H3S           -21.9208972211      -53.9053840613      -12.6041360978  MEMB      259             0.0000000000
     30840       259  POPC      C24           -22.1167030002      -56.1086673802      -12.8217572462  MEMB      259             0.0000000000
     30841       259  POPC      H4R           -22.2311351547      -56.8054958270      -13.6794613517  MEMB      259             0.0000000000
     30842       259  POPC      H4S           -23.0114451706      -56.1809692593      -12.1671353514  MEMB      259             0.0000000000
     30843       259  POPC      C25           -20.8629329246      -56.5264957767      -12.0440207203  MEMB      259             0.0000000000
     30844       259  POPC      H5R           -20.6648683152      -55.9446550035      -11.1185195914  MEMB      259             0.0000000000
     30845       259  POPC      H5S           -19.8600122121      -56.4851211183      -12.5202129462  MEMB      259             0.0000000000
     30846       259  POPC      C26           -21.0312614834      -57.9028083628      -11.4374310578  MEMB      259             0.0000000000
     30847       259  POPC      H6R           -21.1359957264      -58.5507601530      -12.3338181423  MEMB      259             0.0000000000
     30848       259  POPC      H6S           -21.9938854826      -57.9650215081      -10.8862452745  MEMB      259             0.0000000000
     30849       259  POPC      C27           -19.8425961196      -58.3876754281      -10.6024866823  MEMB      259             0.0000000000
     30850       259  POPC      H7R           -18.8765723357      -58.3935954370      -11.1511975904  MEMB      259             0.0000000000
     30851       259  POPC      H7S           -20.0013781917      -59.4815985689      -10.4909418633  MEMB      259             0.0000000000
     30852       259  POPC      C28           -19.6635151471      -57.7846614447       -9.1277408507  MEMB      259             0.0000000000
     30853       259  POPC      H8R           -19.2321813989      -56.7912353122       -9.3754852531  MEMB      259             0.0000000000
     30854       259  POPC      H8S           -18.7727974490      -58.2005976789       -8.6101119489  MEMB      259             0.0000000000
     30855       259  POPC      C29           -20.9429700792      -57.7177861845       -8.3691747951  MEMB      259             0.0000000000
     30856       259  POPC      H91           -21.5834492657      -58.6118456513       -8.3902501954  MEMB      259             0.0000000000
     30857       259  POPC      C210          -21.3334757200      -56.6956903868       -7.5724075648  MEMB      259             0.0000000000
     30858       259  POPC      H101          -22.3514567871      -56.8123981003       -7.1722896402  MEMB      259             0.0000000000
     30859       259  POPC      C211          -20.6192413963      -55.3667571499       -7.2806947230  MEMB      259             0.0000000000
     30860       259  POPC      H11R          -21.2463833020      -54.5317911705       -7.6599654860  MEMB      259             0.0000000000
     30861       259  POPC      H11S          -19.6769665939      -55.2692016763       -7.8611453201  MEMB      259             0.0000000000
     30862       259  POPC      C212          -20.4357242459      -55.1392636396       -5.8032849050  MEMB      259             0.0000000000
     30863       259  POPC      H12R          -19.9616288497      -54.1413173982       -5.6864178194  MEMB      259             0.0000000000
     30864       259  POPC      H12S          -19.7732400781      -55.9566435516       -5.4464570579  MEMB      259             0.0000000000
     30865       259  POPC      C213          -21.7537704218      -55.3105923833       -5.0157794911  MEMB      259             0.0000000000
     30866       259  POPC      H13R          -22.2400729563      -56.2820380105       -5.2484259379  MEMB      259             0.0000000000
     30867       259  POPC      H13S          -22.5392747127      -54.5909321833       -5.3310453721  MEMB      259             0.0000000000
     30868       259  POPC      C214          -21.4966649428      -55.3437675963       -3.4960039846  MEMB      259             0.0000000000
     30869       259  POPC      H14R          -20.7105349951      -56.0536789607       -3.1608227585  MEMB      259             0.0000000000
     30870       259  POPC      H14S          -22.4704951260      -55.5458199563       -3.0008792313  MEMB      259             0.0000000000
     30871       259  POPC      C215          -20.9619702470      -53.9956709237       -2.9929824389  MEMB      259             0.0000000000
     30872       259  POPC      H15R          -21.7606488371      -53.2719260051       -3.2624761344  MEMB      259             0.0000000000
     30873       259  POPC      H15S          -19.9522490128      -53.7730100502       -3.3994379343  MEMB      259             0.0000000000
     30874       259  POPC      C216          -20.9245153380      -54.0497415431       -1.4376522026  MEMB      259             0.0000000000
     30875       259  POPC      H16R          -20.4656842249      -55.0347114327       -1.2060745468  MEMB      259             0.0000000000
     30876       259  POPC      H16S          -21.9449898040      -54.0453975266       -0.9984112368  MEMB      259             0.0000000000
     30877       259  POPC      C217          -20.1349014920      -52.9195002131       -0.6795705344  MEMB      259             0.0000000000
     30878       259  POPC      H17R          -19.1310421670      -52.7749014019       -1.1330898117  MEMB      259             0.0000000000
     30879       259  POPC      H17S          -19.9723179198      -53.0155439519        0.4152632774  MEMB      259             0.0000000000
     30880       259  POPC      C218          -20.6430234451      -51.5246051246       -0.9964579906  MEMB      259             0.0000000000
     30881       259  POPC      H18R          -20.5417584149      -51.4224580830       -2.0981075359  MEMB      259             0.0000000000
     30882       259  POPC      H18S          -20.2172515316      -50.6805445374       -0.4128472056  MEMB      259             0.0000000000
     30883       259  POPC      H18T          -21.7186779316      -51.4737014223       -0.7231496296  MEMB      259             0.0000000000
     30884       259  POPC      C33           -16.5559993184      -55.9571839815      -15.6056014166  MEMB      259             0.0000000000
     30885       259  POPC      H3X           -17.2532307079      -55.0927812565      -15.6371815383  MEMB      259             0.0000000000
     30886       259  POPC      H3Y           -16.3782820768      -56.4675040121      -16.5763283461  MEMB      259             0.0000000000
     30887       259  POPC      C34           -15.1707372662      -55.6833741048      -15.0524705704  MEMB      259             0.0000000000
     30888       259  POPC      H4X           -14.5959138952      -55.0377997596      -15.7504197700  MEMB      259             0.0000000000
     30889       259  POPC      H4Y           -14.5051215446      -56.5614951997      -14.9104135704  MEMB      259             0.0000000000
     30890       259  POPC      C35           -15.3097173560      -55.1486837250      -13.6332824881  MEMB      259             0.0000000000
     30891       259  POPC      H5X           -14.2880495720      -54.8887405371      -13.2826466839  MEMB      259             0.0000000000
     30892       259  POPC      H5Y           -15.7088087537      -55.9787890040      -13.0120159285  MEMB      259             0.0000000000
     30893       259  POPC      C36           -16.2182174874      -53.9294671220      -13.4711930298  MEMB      259             0.0000000000
     30894       259  POPC      H6X           -17.2708189941      -53.9915837345      -13.8211825965  MEMB      259             0.0000000000
     30895       259  POPC      H6Y           -15.7100168386      -53.1262665045      -14.0464512468  MEMB      259             0.0000000000
     30896       259  POPC      C37           -16.2921062395      -53.5312410993      -12.0142389573  MEMB      259             0.0000000000
     30897       259  POPC      H7X           -16.6689070125      -52.4875455656      -11.9590876199  MEMB      259             0.0000000000
     30898       259  POPC      H7Y           -15.2524224362      -53.5778975469      -11.6253925591  MEMB      259             0.0000000000
     30899       259  POPC      C38           -17.2150532407      -54.4136573632      -11.2018373546  MEMB      259             0.0000000000
     30900       259  POPC      H8X           -17.1355309318      -55.5190805676      -11.2795328792  MEMB      259             0.0000000000
     30901       259  POPC      H8Y           -18.2708010215      -54.1340790998      -11.4056843375  MEMB      259             0.0000000000
     30902       259  POPC      C39           -16.8685168982      -54.1297490055       -9.7084297957  MEMB      259             0.0000000000
     30903       259  POPC      H9X           -15.7775711082      -53.9283532372       -9.6484442505  MEMB      259             0.0000000000
     30904       259  POPC      H9Y           -17.1121170873      -55.0498028525       -9.1352978266  MEMB      259             0.0000000000
     30905       259  POPC      C310          -17.7915415032      -52.9204946161       -9.1252430738  MEMB      259             0.0000000000
     30906       259  POPC      H10X          -18.8320236707      -53.2841314831       -9.2648358338  MEMB      259             0.0000000000
     30907       259  POPC      H10Y          -17.6837110781      -52.1063456786       -9.8734772114  MEMB      259             0.0000000000
     30908       259  POPC      C311          -17.3907987479      -52.4067533631       -7.7290700915  MEMB      259             0.0000000000
     30909       259  POPC      H11X          -18.2091200366      -51.7692258014       -7.3312899010  MEMB      259             0.0000000000
     30910       259  POPC      H11Y          -16.4730328898      -51.7815405425       -7.7627773479  MEMB      259             0.0000000000
     30911       259  POPC      C312          -17.1255917229      -53.4729366674       -6.6591776830  MEMB      259             0.0000000000
     30912       259  POPC      H12X          -16.2743653798      -54.1074520374       -6.9864771313  MEMB      259             0.0000000000
     30913       259  POPC      H12Y          -17.9337634472      -54.2310906007       -6.5792876036  MEMB      259             0.0000000000
     30914       259  POPC      C313          -16.9453138367      -52.9018091500       -5.1690452202  MEMB      259             0.0000000000
     30915       259  POPC      H13X          -17.9543826546      -52.5226765336       -4.9000481870  MEMB      259             0.0000000000
     30916       259  POPC      H13Y          -16.1531576323      -52.1255538692       -5.1039460655  MEMB      259             0.0000000000
     30917       259  POPC      C314          -16.2865262713      -53.9358451873       -4.1450176328  MEMB      259             0.0000000000
     30918       259  POPC      H14X          -16.4324534395      -53.4764242263       -3.1440388225  MEMB      259             0.0000000000
     30919       259  POPC      H14Y          -15.1932593417      -53.9997782258       -4.3321046733  MEMB      259             0.0000000000
     30920       259  POPC      C315          -16.9564022567      -55.3558867975       -4.0559719504  MEMB      259             0.0000000000
     30921       259  POPC      H15X          -16.7406552158      -55.9645325395       -4.9600318411  MEMB      259             0.0000000000
     30922       259  POPC      H15Y          -18.0514146442      -55.1682967823       -4.0648478481  MEMB      259             0.0000000000
     30923       259  POPC      C316          -16.7418948897      -55.9838535997       -2.7527527228  MEMB      259             0.0000000000
     30924       259  POPC      H16X          -17.2245230808      -55.3073837492       -2.0153388409  MEMB      259             0.0000000000
     30925       259  POPC      H16Y          -15.6548461031      -56.1041311498       -2.5573580116  MEMB      259             0.0000000000
     30926       259  POPC      H16Z          -17.2835328146      -56.9478794833       -2.6450343609  MEMB      259             0.0000000000
     30927       260  POPC      N              56.2392375745      -11.2644380801      -18.3151569111  MEMB      260             0.0000000000
     30928       260  POPC      C12            55.5021198230      -12.2795698915      -17.5603986176  MEMB      260             0.0000000000
     30929       260  POPC      H12A           54.6104339789      -11.7131687619      -17.3357073229  MEMB      260             0.0000000000
     30930       260  POPC      H12B           55.9683321652      -12.6388205109      -16.6548683380  MEMB      260             0.0000000000
     30931       260  POPC      C13            55.5280953669      -10.7224315060      -19.5702848359  MEMB      260             0.0000000000
     30932       260  POPC      H13A           54.5757456602      -10.3592478299      -19.2131746617  MEMB      260             0.0000000000
     30933       260  POPC      H13B           56.0848888000       -9.9148183224      -20.0221058916  MEMB      260             0.0000000000
     30934       260  POPC      H13C           55.4136415371      -11.5019205686      -20.3089978573  MEMB      260             0.0000000000
     30935       260  POPC      C14            56.6096461899      -10.1310305091      -17.4080251462  MEMB      260             0.0000000000
     30936       260  POPC      H14A           57.2442863808      -10.5577840854      -16.6454549188  MEMB      260             0.0000000000
     30937       260  POPC      H14B           57.1920342438       -9.4266138597      -17.9833695337  MEMB      260             0.0000000000
     30938       260  POPC      H14C           55.7551692436       -9.6369414462      -16.9696812888  MEMB      260             0.0000000000
     30939       260  POPC      C15            57.5122676763      -11.9625970562      -18.7356221023  MEMB      260             0.0000000000
     30940       260  POPC      H15A           57.2560132661      -12.6730461743      -19.5076297216  MEMB      260             0.0000000000
     30941       260  POPC      H15B           58.0522748043      -12.4946834687      -17.9664172733  MEMB      260             0.0000000000
     30942       260  POPC      H15C           58.0581482589      -11.1442477188      -19.1814011709  MEMB      260             0.0000000000
     30943       260  POPC      C11            55.0721262055      -13.5826838969      -18.3211404555  MEMB      260             0.0000000000
     30944       260  POPC      H11A           54.6324797168      -14.2983960792      -17.5939622560  MEMB      260             0.0000000000
     30945       260  POPC      H11B           56.0530830542      -14.0103207849      -18.6197560630  MEMB      260             0.0000000000
     30946       260  POPC      P              52.9413671289      -13.8534620982      -19.8967812660  MEMB      260             0.0000000000
     30947       260  POPC      O13            53.0355695836      -15.2026291219      -20.5830948917  MEMB      260             0.0000000000
     30948       260  POPC      O14            52.2752385671      -12.7488680109      -20.6147668318  MEMB      260             0.0000000000
     30949       260  POPC      O12            54.3267896140      -13.3037447504      -19.4789417164  MEMB      260             0.0000000000
     30950       260  POPC      O11            52.3238044911      -14.1700230799      -18.5157871843  MEMB      260             0.0000000000
     30951       260  POPC      C1             50.8721171762      -14.0899292229      -18.4489292928  MEMB      260             0.0000000000
     30952       260  POPC      HA             50.4544331310      -15.0503799177      -18.8195983828  MEMB      260             0.0000000000
     30953       260  POPC      HB             50.4617903451      -13.1352574481      -18.8420638874  MEMB      260             0.0000000000
     30954       260  POPC      C2             50.4088017419      -13.9854384996      -16.9091341118  MEMB      260             0.0000000000
     30955       260  POPC      HS             49.3008290732      -14.0650570601      -16.9285763289  MEMB      260             0.0000000000
     30956       260  POPC      O21            50.8836164508      -12.6941421647      -16.3967495653  MEMB      260             0.0000000000
     30957       260  POPC      C21            50.5389374645      -12.3652211366      -15.1638214018  MEMB      260             0.0000000000
     30958       260  POPC      O22            49.6105434032      -12.7520695214      -14.4926057458  MEMB      260             0.0000000000
     30959       260  POPC      C22            51.7135503462      -11.4588290610      -14.5868877517  MEMB      260             0.0000000000
     30960       260  POPC      H2R            51.5202475558      -10.4538097537      -15.0191969501  MEMB      260             0.0000000000
     30961       260  POPC      H2S            52.7341642751      -11.8312382313      -14.8192230752  MEMB      260             0.0000000000
     30962       260  POPC      C3             50.9289243820      -15.1545620032      -16.0518573260  MEMB      260             0.0000000000
     30963       260  POPC      HX             50.7727631648      -16.0390753373      -16.7057460448  MEMB      260             0.0000000000
     30964       260  POPC      HY             50.3400288594      -15.2718896945      -15.1171073628  MEMB      260             0.0000000000
     30965       260  POPC      O31            52.3416420373      -15.0289465454      -15.8226704180  MEMB      260             0.0000000000
     30966       260  POPC      C31            52.8662242627      -16.0297679780      -15.2055525639  MEMB      260             0.0000000000
     30967       260  POPC      O32            52.2667763474      -16.9639762681      -14.7624970626  MEMB      260             0.0000000000
     30968       260  POPC      C32            54.4093444017      -15.6889080739      -14.9518717073  MEMB      260             0.0000000000
     30969       260  POPC      H2X            55.0334283688      -15.8455985198      -15.8575695264  MEMB      260             0.0000000000
     30970       260  POPC      H2Y            54.8176129316      -16.4551834546      -14.2587197839  MEMB      260             0.0000000000
     30971       260  POPC      C23            51.5422208627      -11.1964431823      -13.1244652549  MEMB      260             0.0000000000
     30972       260  POPC      H3R            51.6550158369      -12.1125716989      -12.5061559361  MEMB      260             0.0000000000
     30973       260  POPC      H3S            50.5326909790      -10.7604090997      -12.9662094028  MEMB      260             0.0000000000
     30974       260  POPC      C24            52.4752413167      -10.1924677076      -12.4491813615  MEMB      260             0.0000000000
     30975       260  POPC      H4R            52.4197184350       -9.2564838319      -13.0451446327  MEMB      260             0.0000000000
     30976       260  POPC      H4S            53.4863895299      -10.6523109887      -12.4280973902  MEMB      260             0.0000000000
     30977       260  POPC      C25            52.1077424950       -9.7196264390      -11.0527582539  MEMB      260             0.0000000000
     30978       260  POPC      H5R            51.2051743986       -9.0849276059      -10.9229548515  MEMB      260             0.0000000000
     30979       260  POPC      H5S            52.8585196768       -8.9631278199      -10.7391264370  MEMB      260             0.0000000000
     30980       260  POPC      C26            52.0971225816      -10.8371298861       -9.9754580758  MEMB      260             0.0000000000
     30981       260  POPC      H6R            53.1217274225      -11.2666403468       -9.9806396314  MEMB      260             0.0000000000
     30982       260  POPC      H6S            51.4380902734      -11.6701810365      -10.3010705351  MEMB      260             0.0000000000
     30983       260  POPC      C27            51.6673194098      -10.3943954818       -8.5496717118  MEMB      260             0.0000000000
     30984       260  POPC      H7R            51.5406928634      -11.3002693604       -7.9190540896  MEMB      260             0.0000000000
     30985       260  POPC      H7S            50.5957294466      -10.1559455074       -8.7204271703  MEMB      260             0.0000000000
     30986       260  POPC      C28            52.4488183761       -9.2431714488       -7.9131878195  MEMB      260             0.0000000000
     30987       260  POPC      H8R            51.8698004673       -8.8391210861       -7.0553981548  MEMB      260             0.0000000000
     30988       260  POPC      H8S            52.4333537412       -8.3961190684       -8.6319252973  MEMB      260             0.0000000000
     30989       260  POPC      C29            53.8916935066       -9.5720240572       -7.4631099581  MEMB      260             0.0000000000
     30990       260  POPC      H91            54.6099739268       -9.8545559279       -8.2468501864  MEMB      260             0.0000000000
     30991       260  POPC      C210           54.3867178555       -9.5125648208       -6.2325766736  MEMB      260             0.0000000000
     30992       260  POPC      H101           55.4772120997       -9.5334322098       -6.0897947652  MEMB      260             0.0000000000
     30993       260  POPC      C211           53.6480002050       -9.1131412742       -4.8824710023  MEMB      260             0.0000000000
     30994       260  POPC      H11R           53.3152696774       -8.0551509943       -4.8171377773  MEMB      260             0.0000000000
     30995       260  POPC      H11S           54.4752081366       -9.2646173248       -4.1564523326  MEMB      260             0.0000000000
     30996       260  POPC      C212           52.4754783679      -10.0907053786       -4.5141684997  MEMB      260             0.0000000000
     30997       260  POPC      H12R           52.7431153849      -11.0983405489       -4.8980473032  MEMB      260             0.0000000000
     30998       260  POPC      H12S           51.5248477509       -9.6938682131       -4.9302728056  MEMB      260             0.0000000000
     30999       260  POPC      C213           52.2753999432      -10.1952494007       -3.0207385442  MEMB      260             0.0000000000
     31000       260  POPC      H13R           51.8953702138       -9.2015555454       -2.7006265886  MEMB      260             0.0000000000
     31001       260  POPC      H13S           53.2623386772      -10.3329375690       -2.5295007482  MEMB      260             0.0000000000
     31002       260  POPC      C214           51.2589237397      -11.2874742967       -2.4945724748  MEMB      260             0.0000000000
     31003       260  POPC      H14R           51.8864925941      -11.9676434605       -1.8798781667  MEMB      260             0.0000000000
     31004       260  POPC      H14S           50.8125110193      -11.8542764008       -3.3394220983  MEMB      260             0.0000000000
     31005       260  POPC      C215           50.1684624453      -10.6302358354       -1.6120589415  MEMB      260             0.0000000000
     31006       260  POPC      H15R           49.5321741993       -9.9114282906       -2.1713221310  MEMB      260             0.0000000000
     31007       260  POPC      H15S           50.6228624671      -10.0518367404       -0.7794162884  MEMB      260             0.0000000000
     31008       260  POPC      C216           49.2183030429      -11.6033440265       -1.0997863331  MEMB      260             0.0000000000
     31009       260  POPC      H16R           48.6462346173      -11.1493005647       -0.2625863075  MEMB      260             0.0000000000
     31010       260  POPC      H16S           49.7781819589      -12.3771238860       -0.5322287375  MEMB      260             0.0000000000
     31011       260  POPC      C217           48.3023208276      -12.2324750117       -2.1141637367  MEMB      260             0.0000000000
     31012       260  POPC      H17R           48.8221229321      -12.7549161978       -2.9455380681  MEMB      260             0.0000000000
     31013       260  POPC      H17S           47.7084429454      -11.3823306636       -2.5127677045  MEMB      260             0.0000000000
     31014       260  POPC      C218           47.2811586456      -13.1332023660       -1.4463317812  MEMB      260             0.0000000000
     31015       260  POPC      H18R           47.7635878477      -13.8016269435       -0.7014886131  MEMB      260             0.0000000000
     31016       260  POPC      H18S           46.7217071058      -13.8260026823       -2.1106835013  MEMB      260             0.0000000000
     31017       260  POPC      H18T           46.5681782957      -12.4670693612       -0.9150617271  MEMB      260             0.0000000000
     31018       260  POPC      C33            54.5579640154      -14.2811147952      -14.3119313055  MEMB      260             0.0000000000
     31019       260  POPC      H3X            53.8645239924      -14.1697504820      -13.4510827542  MEMB      260             0.0000000000
     31020       260  POPC      H3Y            54.2362042720      -13.5439637437      -15.0783513817  MEMB      260             0.0000000000
     31021       260  POPC      C34            56.0397907909      -13.9431568637      -14.0094789175  MEMB      260             0.0000000000
     31022       260  POPC      H4X            56.6391612525      -14.1161844623      -14.9287927710  MEMB      260             0.0000000000
     31023       260  POPC      H4Y            56.4633500470      -14.6286603571      -13.2446235715  MEMB      260             0.0000000000
     31024       260  POPC      C35            56.2676407937      -12.4504308456      -13.6996717754  MEMB      260             0.0000000000
     31025       260  POPC      H5X            55.7796655404      -11.7949502924      -14.4523646277  MEMB      260             0.0000000000
     31026       260  POPC      H5Y            57.3494044231      -12.2012670674      -13.7446798895  MEMB      260             0.0000000000
     31027       260  POPC      C36            55.9510180615      -12.0811122667      -12.2667007625  MEMB      260             0.0000000000
     31028       260  POPC      H6X            54.8466066927      -12.1529483078      -12.1695601655  MEMB      260             0.0000000000
     31029       260  POPC      H6Y            56.1962963007      -10.9975551993      -12.2587276691  MEMB      260             0.0000000000
     31030       260  POPC      C37            56.7317311546      -12.7443994036      -11.1202879703  MEMB      260             0.0000000000
     31031       260  POPC      H7X            57.7679088326      -12.3436358315      -11.1270389551  MEMB      260             0.0000000000
     31032       260  POPC      H7Y            56.7249896688      -13.8453447896      -11.2692667760  MEMB      260             0.0000000000
     31033       260  POPC      C38            55.9787941855      -12.4550473816       -9.7910339514  MEMB      260             0.0000000000
     31034       260  POPC      H8X            55.3582834165      -11.5488544396       -9.9586695936  MEMB      260             0.0000000000
     31035       260  POPC      H8Y            56.6152840482      -12.2674587592       -8.8999608344  MEMB      260             0.0000000000
     31036       260  POPC      C39            55.0786327540      -13.6329200332       -9.4398236105  MEMB      260             0.0000000000
     31037       260  POPC      H9X            55.6893491552      -14.5433641056       -9.2597178685  MEMB      260             0.0000000000
     31038       260  POPC      H9Y            54.3399478790      -13.7853423822      -10.2555651028  MEMB      260             0.0000000000
     31039       260  POPC      C310           54.2555371488      -13.4635993412       -8.1909245564  MEMB      260             0.0000000000
     31040       260  POPC      H10X           53.6170021951      -12.5605264315       -8.2960606457  MEMB      260             0.0000000000
     31041       260  POPC      H10Y           55.0471244474      -13.2138728200       -7.4524478526  MEMB      260             0.0000000000
     31042       260  POPC      C311           53.5667031571      -14.7444427605       -7.7522970426  MEMB      260             0.0000000000
     31043       260  POPC      H11X           54.2978275069      -15.5414675222       -7.4982701449  MEMB      260             0.0000000000
     31044       260  POPC      H11Y           52.9987788119      -15.1230820068       -8.6288895987  MEMB      260             0.0000000000
     31045       260  POPC      C312           52.6029509618      -14.5574255518       -6.5885834885  MEMB      260             0.0000000000
     31046       260  POPC      H12X           51.6210951414      -15.0073887808       -6.8489936044  MEMB      260             0.0000000000
     31047       260  POPC      H12Y           52.3403513673      -13.4781564030       -6.5653359699  MEMB      260             0.0000000000
     31048       260  POPC      C313           53.0171746632      -15.1279789172       -5.2510676028  MEMB      260             0.0000000000
     31049       260  POPC      H13X           53.2072784382      -16.2210850701       -5.3085105598  MEMB      260             0.0000000000
     31050       260  POPC      H13Y           52.2107758359      -14.9768222442       -4.5019381719  MEMB      260             0.0000000000
     31051       260  POPC      C314           54.2944839376      -14.3689138056       -4.8161672485  MEMB      260             0.0000000000
     31052       260  POPC      H14X           54.0426157893      -13.2875372344       -4.7773277772  MEMB      260             0.0000000000
     31053       260  POPC      H14Y           55.0275547376      -14.4641234066       -5.6455427883  MEMB      260             0.0000000000
     31054       260  POPC      C315           54.7354131445      -14.8667313618       -3.4202534002  MEMB      260             0.0000000000
     31055       260  POPC      H15X           55.6321545079      -14.2664491886       -3.1559869195  MEMB      260             0.0000000000
     31056       260  POPC      H15Y           55.0763014037      -15.9191465410       -3.5229136579  MEMB      260             0.0000000000
     31057       260  POPC      C316           53.6652748622      -14.6498832868       -2.3163959852  MEMB      260             0.0000000000
     31058       260  POPC      H16X           54.1167375503      -14.9051974278       -1.3338899510  MEMB      260             0.0000000000
     31059       260  POPC      H16Y           52.8209082508      -15.3494213107       -2.4953172806  MEMB      260             0.0000000000
     31060       260  POPC      H16Z           53.2410441500      -13.6230694050       -2.3146846735  MEMB      260             0.0000000000
     31061       261  POPC      N              19.3045428920      -50.6766878749      -20.4907933576  MEMB      261             0.0000000000
     31062       261  POPC      C12            19.8439065168      -51.2244071720      -19.2051392055  MEMB      261             0.0000000000
     31063       261  POPC      H12A           20.4944104224      -52.0387779914      -19.4880611531  MEMB      261             0.0000000000
     31064       261  POPC      H12B           19.0505949663      -51.6901570077      -18.6393354383  MEMB      261             0.0000000000
     31065       261  POPC      C13            20.4370852664      -50.0794689080      -21.3083437306  MEMB      261             0.0000000000
     31066       261  POPC      H13A           20.2498246441      -50.0513454997      -22.3716136383  MEMB      261             0.0000000000
     31067       261  POPC      H13B           20.8888040547      -49.1954836318      -20.8829966357  MEMB      261             0.0000000000
     31068       261  POPC      H13C           21.2570988917      -50.7738438965      -21.1996190448  MEMB      261             0.0000000000
     31069       261  POPC      C14            18.7088094797      -51.8334150307      -21.3330762540  MEMB      261             0.0000000000
     31070       261  POPC      H14A           18.2074829045      -51.4516867105      -22.2102050140  MEMB      261             0.0000000000
     31071       261  POPC      H14B           19.4692788454      -52.5120835254      -21.6901411162  MEMB      261             0.0000000000
     31072       261  POPC      H14C           17.9726008256      -52.3208787928      -20.7111630333  MEMB      261             0.0000000000
     31073       261  POPC      C15            18.2762510484      -49.6135843961      -20.2238393672  MEMB      261             0.0000000000
     31074       261  POPC      H15A           17.8192032843      -49.2612222220      -21.1367184103  MEMB      261             0.0000000000
     31075       261  POPC      H15B           18.6909094265      -48.7434514907      -19.7366770106  MEMB      261             0.0000000000
     31076       261  POPC      H15C           17.5411396660      -50.0777954913      -19.5831214843  MEMB      261             0.0000000000
     31077       261  POPC      C11            20.4946275259      -50.2528840076      -18.2182361987  MEMB      261             0.0000000000
     31078       261  POPC      H11A           20.6721378184      -50.9075497150      -17.3383362625  MEMB      261             0.0000000000
     31079       261  POPC      H11B           19.7873676144      -49.4536284067      -17.9095376803  MEMB      261             0.0000000000
     31080       261  POPC      P              22.6360572836      -48.9733888444      -17.6710798115  MEMB      261             0.0000000000
     31081       261  POPC      O13            21.8143996922      -47.9578933257      -16.8677859366  MEMB      261             0.0000000000
     31082       261  POPC      O14            23.9272187524      -48.4328566706      -18.1939615906  MEMB      261             0.0000000000
     31083       261  POPC      O12            21.7829613742      -49.8621312557      -18.7129639767  MEMB      261             0.0000000000
     31084       261  POPC      O11            23.0711543812      -50.1923891205      -16.7747805505  MEMB      261             0.0000000000
     31085       261  POPC      C1             23.9922619498      -51.1894041718      -17.2209209258  MEMB      261             0.0000000000
     31086       261  POPC      HA             25.0371065740      -50.8245836189      -17.3185271115  MEMB      261             0.0000000000
     31087       261  POPC      HB             23.6017529015      -51.5479286227      -18.1972835263  MEMB      261             0.0000000000
     31088       261  POPC      C2             23.9917568037      -52.5163126278      -16.3340468871  MEMB      261             0.0000000000
     31089       261  POPC      HS             23.9075483474      -53.3807136390      -17.0268965467  MEMB      261             0.0000000000
     31090       261  POPC      O21            22.8939431405      -52.5426412213      -15.4331545501  MEMB      261             0.0000000000
     31091       261  POPC      C21            21.8075054475      -53.1466868409      -15.8616745292  MEMB      261             0.0000000000
     31092       261  POPC      O22            21.6327445798      -53.4202035650      -17.0386995771  MEMB      261             0.0000000000
     31093       261  POPC      C22            20.8218382531      -53.6628867001      -14.7171216725  MEMB      261             0.0000000000
     31094       261  POPC      H2R            20.8775901358      -54.7550394071      -14.5211239086  MEMB      261             0.0000000000
     31095       261  POPC      H2S            19.8073388427      -53.5141578893      -15.1448970764  MEMB      261             0.0000000000
     31096       261  POPC      C3             25.2553069533      -52.8200959447      -15.5148977954  MEMB      261             0.0000000000
     31097       261  POPC      HX             26.0909195896      -52.6287832833      -16.2216315058  MEMB      261             0.0000000000
     31098       261  POPC      HY             25.2210854190      -53.8862710264      -15.2043801304  MEMB      261             0.0000000000
     31099       261  POPC      O31            25.4002489302      -51.7738010749      -14.5358157224  MEMB      261             0.0000000000
     31100       261  POPC      C31            24.9242016398      -52.0858056073      -13.3336395986  MEMB      261             0.0000000000
     31101       261  POPC      O32            24.5893214795      -53.2192400916      -12.9447001559  MEMB      261             0.0000000000
     31102       261  POPC      C32            25.1839616134      -50.8237522356      -12.5274927405  MEMB      261             0.0000000000
     31103       261  POPC      H2X            26.2040059868      -50.5053811482      -12.8315824464  MEMB      261             0.0000000000
     31104       261  POPC      H2Y            25.2265648754      -51.0382089059      -11.4382199598  MEMB      261             0.0000000000
     31105       261  POPC      C23            21.0754081695      -52.7858335123      -13.4866123322  MEMB      261             0.0000000000
     31106       261  POPC      H3R            20.8069220282      -51.7673852660      -13.8401647964  MEMB      261             0.0000000000
     31107       261  POPC      H3S            22.0775321354      -52.8474460847      -13.0109316720  MEMB      261             0.0000000000
     31108       261  POPC      C24            20.1129531186      -53.0827739765      -12.3157053947  MEMB      261             0.0000000000
     31109       261  POPC      H4R            20.2503969578      -54.1162943922      -11.9319534101  MEMB      261             0.0000000000
     31110       261  POPC      H4S            19.1059422360      -53.1408115942      -12.7814107170  MEMB      261             0.0000000000
     31111       261  POPC      C25            20.1228878942      -52.0915449452      -11.1908540339  MEMB      261             0.0000000000
     31112       261  POPC      H5R            19.7410921707      -51.1076920797      -11.5381099001  MEMB      261             0.0000000000
     31113       261  POPC      H5S            21.1127939365      -51.9061206236      -10.7217858685  MEMB      261             0.0000000000
     31114       261  POPC      C26            19.3202677481      -52.7145307297      -10.0274882154  MEMB      261             0.0000000000
     31115       261  POPC      H6R            18.6834232079      -53.4801928441      -10.5199423563  MEMB      261             0.0000000000
     31116       261  POPC      H6S            18.6887286197      -52.0138246298       -9.4405548816  MEMB      261             0.0000000000
     31117       261  POPC      C27            20.1699926319      -53.4729538177       -8.9979328624  MEMB      261             0.0000000000
     31118       261  POPC      H7R            21.0820387832      -53.9148602531       -9.4531378375  MEMB      261             0.0000000000
     31119       261  POPC      H7S            19.5681951273      -54.2865291470       -8.5393961799  MEMB      261             0.0000000000
     31120       261  POPC      C28            20.7498969020      -52.5426446681       -7.9258174054  MEMB      261             0.0000000000
     31121       261  POPC      H8R            19.8839618798      -52.0191373457       -7.4671040523  MEMB      261             0.0000000000
     31122       261  POPC      H8S            21.4235384906      -51.8068961503       -8.4149001679  MEMB      261             0.0000000000
     31123       261  POPC      C29            21.2890858317      -53.3273311469       -6.6852512396  MEMB      261             0.0000000000
     31124       261  POPC      H91            20.5641495153      -53.8074030877       -6.0114575425  MEMB      261             0.0000000000
     31125       261  POPC      C210           22.5744206737      -53.7020326068       -6.4906452038  MEMB      261             0.0000000000
     31126       261  POPC      H101           22.7929215113      -54.3236713914       -5.6098367583  MEMB      261             0.0000000000
     31127       261  POPC      C211           23.7782030880      -53.4314779053       -7.4065541955  MEMB      261             0.0000000000
     31128       261  POPC      H11R           23.4847252210      -52.6246974890       -8.1117470682  MEMB      261             0.0000000000
     31129       261  POPC      H11S           24.0013782423      -54.3971108204       -7.9086168204  MEMB      261             0.0000000000
     31130       261  POPC      C212           25.0487195076      -52.9139730563       -6.6791007210  MEMB      261             0.0000000000
     31131       261  POPC      H12R           25.7379020015      -52.5796099869       -7.4838056655  MEMB      261             0.0000000000
     31132       261  POPC      H12S           25.5447831558      -53.7569732664       -6.1522299793  MEMB      261             0.0000000000
     31133       261  POPC      C213           24.7959379046      -51.8829735047       -5.5868064376  MEMB      261             0.0000000000
     31134       261  POPC      H13R           24.3407576984      -52.3965393698       -4.7130896104  MEMB      261             0.0000000000
     31135       261  POPC      H13S           24.0932157460      -51.1481646068       -6.0346438647  MEMB      261             0.0000000000
     31136       261  POPC      C214           26.0659229351      -51.1973656574       -5.0331673903  MEMB      261             0.0000000000
     31137       261  POPC      H14R           26.5636755530      -50.7730095853       -5.9312126681  MEMB      261             0.0000000000
     31138       261  POPC      H14S           26.7864175878      -51.9066001761       -4.5725223168  MEMB      261             0.0000000000
     31139       261  POPC      C215           25.7710551545      -49.9246432805       -4.2280468780  MEMB      261             0.0000000000
     31140       261  POPC      H15R           25.0880122136      -49.4058196228       -4.9341601169  MEMB      261             0.0000000000
     31141       261  POPC      H15S           26.5954808798      -49.1900594696       -4.1054499013  MEMB      261             0.0000000000
     31142       261  POPC      C216           25.0856785826      -50.1002704870       -2.9014529093  MEMB      261             0.0000000000
     31143       261  POPC      H16R           24.1359496623      -50.6650213769       -3.0171761650  MEMB      261             0.0000000000
     31144       261  POPC      H16S           24.9181104459      -49.0704887512       -2.5196255724  MEMB      261             0.0000000000
     31145       261  POPC      C217           26.0115877815      -50.7842752473       -1.8763606725  MEMB      261             0.0000000000
     31146       261  POPC      H17R           26.8766573955      -50.1266441063       -1.6450678429  MEMB      261             0.0000000000
     31147       261  POPC      H17S           26.3406663072      -51.7630260406       -2.2863312783  MEMB      261             0.0000000000
     31148       261  POPC      C218           25.2616956750      -51.2036474097       -0.6168257721  MEMB      261             0.0000000000
     31149       261  POPC      H18R           25.7231055369      -51.8273128191        0.1784482548  MEMB      261             0.0000000000
     31150       261  POPC      H18S           24.3024415362      -51.7227417905       -0.8282347227  MEMB      261             0.0000000000
     31151       261  POPC      H18T           24.9247266715      -50.3074263061       -0.0533010624  MEMB      261             0.0000000000
     31152       261  POPC      C33            24.1155914148      -49.7626302933      -12.9788372456  MEMB      261             0.0000000000
     31153       261  POPC      H3X            23.1150010759      -50.2121401565      -12.8025399966  MEMB      261             0.0000000000
     31154       261  POPC      H3Y            24.0173517836      -49.6531083882      -14.0800522076  MEMB      261             0.0000000000
     31155       261  POPC      C34            24.2370600692      -48.3829803166      -12.3642577538  MEMB      261             0.0000000000
     31156       261  POPC      H4X            23.3712457917      -47.7753069049      -12.7039925801  MEMB      261             0.0000000000
     31157       261  POPC      H4Y            25.0998365920      -47.8190210157      -12.7788511917  MEMB      261             0.0000000000
     31158       261  POPC      C35            24.2922679344      -48.2891069204      -10.8111689403  MEMB      261             0.0000000000
     31159       261  POPC      H5X            25.1896829887      -48.7843893661      -10.3826108957  MEMB      261             0.0000000000
     31160       261  POPC      H5Y            23.3794364777      -48.8237994996      -10.4718119082  MEMB      261             0.0000000000
     31161       261  POPC      C36            24.0531397671      -46.9695679490      -10.1143799833  MEMB      261             0.0000000000
     31162       261  POPC      H6X            23.0079853449      -46.6087752346      -10.2230150445  MEMB      261             0.0000000000
     31163       261  POPC      H6Y            24.7465157212      -46.2698553354      -10.6281441359  MEMB      261             0.0000000000
     31164       261  POPC      C37            24.3019342756      -47.0362069457       -8.6219872481  MEMB      261             0.0000000000
     31165       261  POPC      H7X            24.4213888830      -46.0162342607       -8.1980690562  MEMB      261             0.0000000000
     31166       261  POPC      H7Y            25.3135908428      -47.4796585315       -8.5027296710  MEMB      261             0.0000000000
     31167       261  POPC      C38            23.2579442397      -47.7007944954       -7.7680902541  MEMB      261             0.0000000000
     31168       261  POPC      H8X            23.7338744582      -47.8179990678       -6.7710567757  MEMB      261             0.0000000000
     31169       261  POPC      H8Y            23.0216815455      -48.7157234987       -8.1533432102  MEMB      261             0.0000000000
     31170       261  POPC      C39            21.9941831477      -46.8004923731       -7.5871950278  MEMB      261             0.0000000000
     31171       261  POPC      H9X            21.5206224927      -46.5207822060       -8.5525051996  MEMB      261             0.0000000000
     31172       261  POPC      H9Y            22.4713084275      -45.8647603977       -7.2251474678  MEMB      261             0.0000000000
     31173       261  POPC      C310           20.9295738240      -47.2861497878       -6.6874869937  MEMB      261             0.0000000000
     31174       261  POPC      H10X           20.2158786402      -46.5467643485       -6.2652678166  MEMB      261             0.0000000000
     31175       261  POPC      H10Y           21.4692274437      -47.8066460737       -5.8676228774  MEMB      261             0.0000000000
     31176       261  POPC      C311           19.8691538866      -48.2442784393       -7.2868455098  MEMB      261             0.0000000000
     31177       261  POPC      H11X           20.4413319980      -49.0882539865       -7.7280238802  MEMB      261             0.0000000000
     31178       261  POPC      H11Y           19.4273022961      -47.7963420546       -8.2025103517  MEMB      261             0.0000000000
     31179       261  POPC      C312           18.8453954315      -48.7106320744       -6.1949086919  MEMB      261             0.0000000000
     31180       261  POPC      H12X           18.0271284418      -49.1795909157       -6.7821375830  MEMB      261             0.0000000000
     31181       261  POPC      H12Y           18.3735141114      -47.8764649258       -5.6329349951  MEMB      261             0.0000000000
     31182       261  POPC      C313           19.5052119152      -49.6838466708       -5.1849160026  MEMB      261             0.0000000000
     31183       261  POPC      H13X           20.6150027474      -49.6429734835       -5.2167706345  MEMB      261             0.0000000000
     31184       261  POPC      H13Y           19.2281561558      -50.7182458334       -5.4808539934  MEMB      261             0.0000000000
     31185       261  POPC      C314           19.2768837261      -49.4574470398       -3.6377384813  MEMB      261             0.0000000000
     31186       261  POPC      H14X           18.1820127620      -49.5362357534       -3.4663572021  MEMB      261             0.0000000000
     31187       261  POPC      H14Y           19.5873820742      -48.4241110997       -3.3729204386  MEMB      261             0.0000000000
     31188       261  POPC      C315           19.8523950351      -50.6484181724       -2.7411843033  MEMB      261             0.0000000000
     31189       261  POPC      H15X           19.7081517737      -50.2467709424       -1.7154182929  MEMB      261             0.0000000000
     31190       261  POPC      H15Y           20.9589897499      -50.6818208333       -2.8342092338  MEMB      261             0.0000000000
     31191       261  POPC      C316           19.3181393966      -52.0846399732       -2.9177267125  MEMB      261             0.0000000000
     31192       261  POPC      H16X           18.2240655233      -52.1666281850       -2.7427953796  MEMB      261             0.0000000000
     31193       261  POPC      H16Y           19.8359302392      -52.7940451607       -2.2373156017  MEMB      261             0.0000000000
     31194       261  POPC      H16Z           19.5147748370      -52.3511904296       -3.9782008615  MEMB      261             0.0000000000
     31195       262  POPC      N             -52.3027960401       18.6594228661      -19.8443827117  MEMB      262             0.0000000000
     31196       262  POPC      C12           -53.3452291513       17.8510197235      -20.7206044344  MEMB      262             0.0000000000
     31197       262  POPC      H12A          -52.8987242601       17.7471788861      -21.6984849765  MEMB      262             0.0000000000
     31198       262  POPC      H12B          -54.3108427957       18.3327013708      -20.6761846219  MEMB      262             0.0000000000
     31199       262  POPC      C13           -52.9536746222       19.3336978675      -18.6831894155  MEMB      262             0.0000000000
     31200       262  POPC      H13A          -53.5389631514       20.1577931155      -19.0635895221  MEMB      262             0.0000000000
     31201       262  POPC      H13B          -53.6380685111       18.6466045574      -18.2078918203  MEMB      262             0.0000000000
     31202       262  POPC      H13C          -52.1133506178       19.5999144925      -18.0591827406  MEMB      262             0.0000000000
     31203       262  POPC      C14           -51.1699335135       17.8786877260      -19.2787662005  MEMB      262             0.0000000000
     31204       262  POPC      H14A          -51.6513776473       17.0154981685      -18.8434324621  MEMB      262             0.0000000000
     31205       262  POPC      H14B          -50.5015462794       17.5068048420      -20.0412369162  MEMB      262             0.0000000000
     31206       262  POPC      H14C          -50.5313409122       18.2635453749      -18.4974315979  MEMB      262             0.0000000000
     31207       262  POPC      C15           -51.7826300946       19.6391645803      -20.8916361461  MEMB      262             0.0000000000
     31208       262  POPC      H15A          -51.0432084160       20.3403439517      -20.5338614071  MEMB      262             0.0000000000
     31209       262  POPC      H15B          -52.6845704376       20.1545987862      -21.1869848409  MEMB      262             0.0000000000
     31210       262  POPC      H15C          -51.4246561551       19.0646685316      -21.7331877066  MEMB      262             0.0000000000
     31211       262  POPC      C11           -53.6781300489       16.4254060975      -20.1380108487  MEMB      262             0.0000000000
     31212       262  POPC      H11A          -52.7276575963       15.8564869475      -20.2231815113  MEMB      262             0.0000000000
     31213       262  POPC      H11B          -54.4365579491       15.9534496443      -20.7985902377  MEMB      262             0.0000000000
     31214       262  POPC      P             -53.9026815032       15.2652072881      -17.8364051508  MEMB      262             0.0000000000
     31215       262  POPC      O13           -55.1987713644       14.5478156828      -17.6630577955  MEMB      262             0.0000000000
     31216       262  POPC      O14           -53.3929506560       15.8288119495      -16.5846747035  MEMB      262             0.0000000000
     31217       262  POPC      O12           -54.0946886667       16.5192692903      -18.8190606935  MEMB      262             0.0000000000
     31218       262  POPC      O11           -52.7772389290       14.3485484995      -18.5402119126  MEMB      262             0.0000000000
     31219       262  POPC      C1            -51.3934624793       14.5084344291      -18.0463596057  MEMB      262             0.0000000000
     31220       262  POPC      HA            -51.1388707245       15.3605986650      -17.3805368425  MEMB      262             0.0000000000
     31221       262  POPC      HB            -50.8376261489       14.7676770753      -18.9727290629  MEMB      262             0.0000000000
     31222       262  POPC      C2            -51.0669989640       13.0562459301      -17.6501941496  MEMB      262             0.0000000000
     31223       262  POPC      HS            -51.4433941566       12.3059975777      -18.3780510836  MEMB      262             0.0000000000
     31224       262  POPC      O21           -51.4843721328       12.8109422368      -16.2859336825  MEMB      262             0.0000000000
     31225       262  POPC      C21           -52.5144467441       12.0120841978      -16.0369041889  MEMB      262             0.0000000000
     31226       262  POPC      O22           -53.3923314125       11.6450637531      -16.7893087035  MEMB      262             0.0000000000
     31227       262  POPC      C22           -52.4287024649       11.6457622191      -14.5589016438  MEMB      262             0.0000000000
     31228       262  POPC      H2R           -51.5347253896       11.0074958059      -14.3923415384  MEMB      262             0.0000000000
     31229       262  POPC      H2S           -53.3322509502       11.0396147352      -14.3341647976  MEMB      262             0.0000000000
     31230       262  POPC      C3            -49.5400939101       12.8608241224      -17.8745912855  MEMB      262             0.0000000000
     31231       262  POPC      HX            -49.4947370146       12.8635062571      -18.9846617938  MEMB      262             0.0000000000
     31232       262  POPC      HY            -49.0753293936       11.8915711470      -17.5937641815  MEMB      262             0.0000000000
     31233       262  POPC      O31           -48.8766302604       13.9543696325      -17.2581785291  MEMB      262             0.0000000000
     31234       262  POPC      C31           -48.6929699358       13.9770164612      -15.9576456816  MEMB      262             0.0000000000
     31235       262  POPC      O32           -48.9656779028       13.1498451552      -15.1783819568  MEMB      262             0.0000000000
     31236       262  POPC      C32           -48.0510797917       15.2870673607      -15.6189555971  MEMB      262             0.0000000000
     31237       262  POPC      H2X           -48.6972525140       16.1578749139      -15.8607734320  MEMB      262             0.0000000000
     31238       262  POPC      H2Y           -47.1030510985       15.3353833203      -16.1962146112  MEMB      262             0.0000000000
     31239       262  POPC      C23           -52.2444800930       12.8507264334      -13.5875489707  MEMB      262             0.0000000000
     31240       262  POPC      H3R           -51.5169748511       13.6486341184      -13.8490827892  MEMB      262             0.0000000000
     31241       262  POPC      H3S           -51.8953687045       12.4336923329      -12.6187740890  MEMB      262             0.0000000000
     31242       262  POPC      C24           -53.5315026577       13.7412249033      -13.1378305451  MEMB      262             0.0000000000
     31243       262  POPC      H4R           -54.2162102623       12.8783756435      -12.9929597917  MEMB      262             0.0000000000
     31244       262  POPC      H4S           -53.9324589212       14.2579357519      -14.0359200589  MEMB      262             0.0000000000
     31245       262  POPC      C25           -53.4298859371       14.7071862863      -11.9873442430  MEMB      262             0.0000000000
     31246       262  POPC      H5R           -52.9782703728       15.6488514209      -12.3663309692  MEMB      262             0.0000000000
     31247       262  POPC      H5S           -52.6065028837       14.4270875806      -11.2960363224  MEMB      262             0.0000000000
     31248       262  POPC      C26           -54.6654276231       15.1082575169      -11.1743243109  MEMB      262             0.0000000000
     31249       262  POPC      H6R           -55.0908284698       14.2661626814      -10.5876120207  MEMB      262             0.0000000000
     31250       262  POPC      H6S           -55.4227403582       15.3249198850      -11.9578137440  MEMB      262             0.0000000000
     31251       262  POPC      C27           -54.3949459426       16.2488349563      -10.2395221268  MEMB      262             0.0000000000
     31252       262  POPC      H7R           -53.8485604589       17.0272514833      -10.8138490002  MEMB      262             0.0000000000
     31253       262  POPC      H7S           -53.7761967465       15.8433212011       -9.4106497356  MEMB      262             0.0000000000
     31254       262  POPC      C28           -55.5995719647       16.9200578785       -9.5328947027  MEMB      262             0.0000000000
     31255       262  POPC      H8R           -56.2382487624       17.4385718230      -10.2795918427  MEMB      262             0.0000000000
     31256       262  POPC      H8S           -55.2848019970       17.6036862850       -8.7156476629  MEMB      262             0.0000000000
     31257       262  POPC      C29           -56.5540573366       15.9768385643       -8.8491112307  MEMB      262             0.0000000000
     31258       262  POPC      H91           -57.5396176157       16.0526111648       -9.3317378550  MEMB      262             0.0000000000
     31259       262  POPC      C210          -56.3442493398       15.1832655263       -7.8409770185  MEMB      262             0.0000000000
     31260       262  POPC      H101          -57.1769606775       14.4760759571       -7.7126244008  MEMB      262             0.0000000000
     31261       262  POPC      C211          -55.0415195220       14.9659437121       -7.0720284800  MEMB      262             0.0000000000
     31262       262  POPC      H11R          -54.0969516957       14.9318125062       -7.6559354385  MEMB      262             0.0000000000
     31263       262  POPC      H11S          -55.0479567496       14.0362399587       -6.4638092928  MEMB      262             0.0000000000
     31264       262  POPC      C212          -54.7927094370       16.1283994055       -6.0188431663  MEMB      262             0.0000000000
     31265       262  POPC      H12R          -54.7899532341       17.0899317399       -6.5754126919  MEMB      262             0.0000000000
     31266       262  POPC      H12S          -53.7792733896       15.9886143502       -5.5855667985  MEMB      262             0.0000000000
     31267       262  POPC      C213          -55.7699818114       16.2543007202       -4.8511276565  MEMB      262             0.0000000000
     31268       262  POPC      H13R          -56.7761126936       16.4522761182       -5.2787106294  MEMB      262             0.0000000000
     31269       262  POPC      H13S          -55.5900511582       17.1993692635       -4.2954379833  MEMB      262             0.0000000000
     31270       262  POPC      C214          -55.9299159857       14.9781454192       -3.9168819840  MEMB      262             0.0000000000
     31271       262  POPC      H14R          -54.9212236846       14.8392780828       -3.4723862596  MEMB      262             0.0000000000
     31272       262  POPC      H14S          -56.3057498120       14.1393476166       -4.5409718515  MEMB      262             0.0000000000
     31273       262  POPC      C215          -56.8316639014       15.2128066876       -2.7093000736  MEMB      262             0.0000000000
     31274       262  POPC      H15R          -57.9149627611       15.4347334621       -2.8166925842  MEMB      262             0.0000000000
     31275       262  POPC      H15S          -56.4099019679       16.1462807524       -2.2791095822  MEMB      262             0.0000000000
     31276       262  POPC      C216          -56.6726125247       14.0190120492       -1.7159957840  MEMB      262             0.0000000000
     31277       262  POPC      H16R          -55.7044954641       13.5476776317       -1.9897004944  MEMB      262             0.0000000000
     31278       262  POPC      H16S          -57.4658567403       13.2452198725       -1.7955594870  MEMB      262             0.0000000000
     31279       262  POPC      C217          -56.5148745218       14.3480076487       -0.2004768722  MEMB      262             0.0000000000
     31280       262  POPC      H17R          -55.5194223143       14.8048257150       -0.0141612484  MEMB      262             0.0000000000
     31281       262  POPC      H17S          -56.6663238370       13.3760153713        0.3158727941  MEMB      262             0.0000000000
     31282       262  POPC      C218          -57.5743708856       15.3723304900        0.2742543416  MEMB      262             0.0000000000
     31283       262  POPC      H18R          -57.1846189467       16.3282314267       -0.1364360703  MEMB      262             0.0000000000
     31284       262  POPC      H18S          -57.5693078186       15.4949982212        1.3784496896  MEMB      262             0.0000000000
     31285       262  POPC      H18T          -58.5459881850       15.1582463288       -0.2201627065  MEMB      262             0.0000000000
     31286       262  POPC      C33           -47.7195101165       15.3163085764      -14.1154097380  MEMB      262             0.0000000000
     31287       262  POPC      H3X           -47.1448177151       16.2556089060      -13.9678808926  MEMB      262             0.0000000000
     31288       262  POPC      H3Y           -47.0315340070       14.4960128733      -13.8185515236  MEMB      262             0.0000000000
     31289       262  POPC      C34           -48.9630710133       15.4624981774      -13.2653831506  MEMB      262             0.0000000000
     31290       262  POPC      H4X           -49.8151038588       14.7533213010      -13.3390682206  MEMB      262             0.0000000000
     31291       262  POPC      H4Y           -49.3960082025       16.4161177869      -13.6361876054  MEMB      262             0.0000000000
     31292       262  POPC      C35           -48.5820817655       15.7849215779      -11.8413518573  MEMB      262             0.0000000000
     31293       262  POPC      H5X           -47.9460535869       16.6865582622      -11.9711195606  MEMB      262             0.0000000000
     31294       262  POPC      H5Y           -47.9123418806       14.9736344925      -11.4841643194  MEMB      262             0.0000000000
     31295       262  POPC      C36           -49.6326024807       15.8323982935      -10.8117994087  MEMB      262             0.0000000000
     31296       262  POPC      H6X           -50.1477524041       14.8500669363      -10.7488172652  MEMB      262             0.0000000000
     31297       262  POPC      H6Y           -50.4991169031       16.4989365265      -11.0097915015  MEMB      262             0.0000000000
     31298       262  POPC      C37           -49.0828218700       16.1532153627       -9.3816675039  MEMB      262             0.0000000000
     31299       262  POPC      H7X           -48.2765314812       16.9166209568       -9.4194612735  MEMB      262             0.0000000000
     31300       262  POPC      H7Y           -48.6699891521       15.1648645970       -9.0866215875  MEMB      262             0.0000000000
     31301       262  POPC      C38           -50.1318733088       16.5528307416       -8.4141214884  MEMB      262             0.0000000000
     31302       262  POPC      H8X           -50.8059937562       15.6784051598       -8.2905816241  MEMB      262             0.0000000000
     31303       262  POPC      H8Y           -50.6394309220       17.4566896904       -8.8138027088  MEMB      262             0.0000000000
     31304       262  POPC      C39           -49.5256541724       17.0456094694       -7.0613514910  MEMB      262             0.0000000000
     31305       262  POPC      H9X           -49.1743219813       18.0830303229       -7.2474828086  MEMB      262             0.0000000000
     31306       262  POPC      H9Y           -48.8021436960       16.3186373872       -6.6343093256  MEMB      262             0.0000000000
     31307       262  POPC      C310          -50.5894394219       17.1644181921       -5.9046773192  MEMB      262             0.0000000000
     31308       262  POPC      H10X          -51.4852237090       17.8029787455       -6.0600225195  MEMB      262             0.0000000000
     31309       262  POPC      H10Y          -50.0280046794       17.5745385572       -5.0381249380  MEMB      262             0.0000000000
     31310       262  POPC      C311          -50.9915676923       15.7684403693       -5.5247555485  MEMB      262             0.0000000000
     31311       262  POPC      H11X          -50.1582352144       15.0744341818       -5.7660710930  MEMB      262             0.0000000000
     31312       262  POPC      H11Y          -51.9174221348       15.5658058554       -6.1044568397  MEMB      262             0.0000000000
     31313       262  POPC      C312          -51.1504296997       15.7195488607       -3.9776018993  MEMB      262             0.0000000000
     31314       262  POPC      H12X          -51.8300453339       16.4935596230       -3.5612473695  MEMB      262             0.0000000000
     31315       262  POPC      H12Y          -50.1625985424       15.9475611674       -3.5231560397  MEMB      262             0.0000000000
     31316       262  POPC      C313          -51.5665362700       14.3162541002       -3.4198592848  MEMB      262             0.0000000000
     31317       262  POPC      H13X          -50.9540302549       13.4623816937       -3.7804966617  MEMB      262             0.0000000000
     31318       262  POPC      H13Y          -52.5845033138       14.1149317934       -3.8167643829  MEMB      262             0.0000000000
     31319       262  POPC      C314          -51.7893267456       14.4038734206       -1.8881403588  MEMB      262             0.0000000000
     31320       262  POPC      H14X          -52.4846673458       13.6525500282       -1.4564738023  MEMB      262             0.0000000000
     31321       262  POPC      H14Y          -52.3403932453       15.3522726174       -1.7115449994  MEMB      262             0.0000000000
     31322       262  POPC      C315          -50.5514422640       14.3936255725       -1.0578973361  MEMB      262             0.0000000000
     31323       262  POPC      H15X          -49.7311707458       14.9186599212       -1.5925130101  MEMB      262             0.0000000000
     31324       262  POPC      H15Y          -50.2291806212       13.3401468689       -0.9141932675  MEMB      262             0.0000000000
     31325       262  POPC      C316          -50.7074271986       15.0861121857        0.3362147789  MEMB      262             0.0000000000
     31326       262  POPC      H16X          -50.8740310116       16.1511894795        0.0675647585  MEMB      262             0.0000000000
     31327       262  POPC      H16Y          -49.7495162705       14.9244257332        0.8752755396  MEMB      262             0.0000000000
     31328       262  POPC      H16Z          -51.5476749990       14.7718053543        0.9915907527  MEMB      262             0.0000000000
     31329       263  POPC      N              17.1179137343       54.7546495742      -17.5041352525  MEMB      263             0.0000000000
     31330       263  POPC      C12            17.7504962111       53.5714541801      -18.1838531765  MEMB      263             0.0000000000
     31331       263  POPC      H12A           17.6313987976       52.7767032629      -17.4623362134  MEMB      263             0.0000000000
     31332       263  POPC      H12B           18.8016719940       53.6738736475      -18.4095522890  MEMB      263             0.0000000000
     31333       263  POPC      C13            15.5998888557       54.5986818105      -17.4185185858  MEMB      263             0.0000000000
     31334       263  POPC      H13A           15.3932992647       53.6170112634      -17.0184639972  MEMB      263             0.0000000000
     31335       263  POPC      H13B           15.1346621544       55.3323522701      -16.7768866185  MEMB      263             0.0000000000
     31336       263  POPC      H13C           15.1599500051       54.5605937615      -18.4041164033  MEMB      263             0.0000000000
     31337       263  POPC      C14            17.7257931459       54.8224315281      -16.1130494113  MEMB      263             0.0000000000
     31338       263  POPC      H14A           18.7726351059       54.5862407774      -16.2344422142  MEMB      263             0.0000000000
     31339       263  POPC      H14B           17.5568616922       55.7580026588      -15.6006348126  MEMB      263             0.0000000000
     31340       263  POPC      H14C           17.2607120019       54.1578379690      -15.4000171945  MEMB      263             0.0000000000
     31341       263  POPC      C15            17.5669351671       56.0734752344      -18.1907519632  MEMB      263             0.0000000000
     31342       263  POPC      H15A           17.0523909334       56.2195308104      -19.1290013606  MEMB      263             0.0000000000
     31343       263  POPC      H15B           18.6181363126       55.9694574918      -18.4155999815  MEMB      263             0.0000000000
     31344       263  POPC      H15C           17.3541605506       56.9238704852      -17.5599153920  MEMB      263             0.0000000000
     31345       263  POPC      C11            17.1284128230       53.1340720666      -19.5443431232  MEMB      263             0.0000000000
     31346       263  POPC      H11A           17.8773754496       52.4154220206      -19.9404720438  MEMB      263             0.0000000000
     31347       263  POPC      H11B           17.2700315521       54.0013711901      -20.2240911571  MEMB      263             0.0000000000
     31348       263  POPC      P              14.7920472658       52.5122016018      -20.4346134533  MEMB      263             0.0000000000
     31349       263  POPC      O13            15.5396498520       52.6239037040      -21.6635023078  MEMB      263             0.0000000000
     31350       263  POPC      O14            13.6806553339       53.5157866228      -20.2177607100  MEMB      263             0.0000000000
     31351       263  POPC      O12            15.8441278813       52.6275130388      -19.2859549389  MEMB      263             0.0000000000
     31352       263  POPC      O11            14.3559299313       50.9827050442      -20.4435170809  MEMB      263             0.0000000000
     31353       263  POPC      C1             14.1982765197       50.1416939180      -19.4460661093  MEMB      263             0.0000000000
     31354       263  POPC      HA             14.9659046064       50.1709735595      -18.6434386334  MEMB      263             0.0000000000
     31355       263  POPC      HB             14.2333124437       49.1080403448      -19.8518413143  MEMB      263             0.0000000000
     31356       263  POPC      C2             12.8100476697       50.3820423825      -18.7082985949  MEMB      263             0.0000000000
     31357       263  POPC      HS             12.1110374159       50.6139378229      -19.5401218776  MEMB      263             0.0000000000
     31358       263  POPC      O21            12.9858859388       51.6366451672      -17.9068167700  MEMB      263             0.0000000000
     31359       263  POPC      C21            11.9092482290       52.3278326315      -17.7975323154  MEMB      263             0.0000000000
     31360       263  POPC      O22            10.8627614813       52.1420478946      -18.3769261665  MEMB      263             0.0000000000
     31361       263  POPC      C22            12.1963403870       53.3854428699      -16.7355729746  MEMB      263             0.0000000000
     31362       263  POPC      H2R            12.8711744046       54.0679851331      -17.2950872323  MEMB      263             0.0000000000
     31363       263  POPC      H2S            12.7024847653       52.9932032197      -15.8276704116  MEMB      263             0.0000000000
     31364       263  POPC      C3             12.3752577561       49.2018315320      -17.8134391429  MEMB      263             0.0000000000
     31365       263  POPC      HX             12.2768402026       48.3956912919      -18.5715771752  MEMB      263             0.0000000000
     31366       263  POPC      HY             11.3721733204       49.4097028888      -17.3834013164  MEMB      263             0.0000000000
     31367       263  POPC      O31            13.4694613373       48.9279844695      -16.9289915099  MEMB      263             0.0000000000
     31368       263  POPC      C31            13.4869046919       49.3208753733      -15.6767153775  MEMB      263             0.0000000000
     31369       263  POPC      O32            12.5279484888       49.8434783871      -15.1027412073  MEMB      263             0.0000000000
     31370       263  POPC      C32            14.9213219262       49.0671466133      -15.0740166290  MEMB      263             0.0000000000
     31371       263  POPC      H2X            15.6669291189       49.7835432412      -15.4804240468  MEMB      263             0.0000000000
     31372       263  POPC      H2Y            15.1926487431       48.1216818441      -15.5905423522  MEMB      263             0.0000000000
     31373       263  POPC      C23            10.9021020239       54.0544194875      -16.4509753360  MEMB      263             0.0000000000
     31374       263  POPC      H3R            10.3750806146       53.3730750333      -15.7493060402  MEMB      263             0.0000000000
     31375       263  POPC      H3S            10.2784547336       54.2113207350      -17.3569371220  MEMB      263             0.0000000000
     31376       263  POPC      C24            11.2444624955       55.3392366008      -15.6727909194  MEMB      263             0.0000000000
     31377       263  POPC      H4R            10.3236559229       55.9600954603      -15.6416263335  MEMB      263             0.0000000000
     31378       263  POPC      H4S            11.9825849348       55.8915286237      -16.2928472102  MEMB      263             0.0000000000
     31379       263  POPC      C25            11.8792033839       55.1231282928      -14.2256833427  MEMB      263             0.0000000000
     31380       263  POPC      H5R            12.7497455166       54.4448541631      -14.3538304810  MEMB      263             0.0000000000
     31381       263  POPC      H5S            11.2080415703       54.7043555269      -13.4456240272  MEMB      263             0.0000000000
     31382       263  POPC      C26            12.2163900101       56.4541639087      -13.5618849312  MEMB      263             0.0000000000
     31383       263  POPC      H6R            11.2627323462       56.9476952917      -13.2767793228  MEMB      263             0.0000000000
     31384       263  POPC      H6S            12.9243479571       57.0006214610      -14.2210518837  MEMB      263             0.0000000000
     31385       263  POPC      C27            12.9332828085       56.3229369390      -12.1577987120  MEMB      263             0.0000000000
     31386       263  POPC      H7R            12.8923463583       57.3691536957      -11.7862133795  MEMB      263             0.0000000000
     31387       263  POPC      H7S            13.9796138047       55.9928056095      -12.3325152731  MEMB      263             0.0000000000
     31388       263  POPC      C28            12.1261561546       55.4500200833      -11.1539793286  MEMB      263             0.0000000000
     31389       263  POPC      H8R            12.0744182783       54.3672669249      -11.3974738906  MEMB      263             0.0000000000
     31390       263  POPC      H8S            11.0783983141       55.8194711997      -11.1484720786  MEMB      263             0.0000000000
     31391       263  POPC      C29            12.7448026713       55.7137751079       -9.7712157192  MEMB      263             0.0000000000
     31392       263  POPC      H91            12.8056864849       56.7084447489       -9.3054635122  MEMB      263             0.0000000000
     31393       263  POPC      C210           13.3165264562       54.7800525678       -9.0060431482  MEMB      263             0.0000000000
     31394       263  POPC      H101           13.6871208383       54.9786693343       -7.9895723556  MEMB      263             0.0000000000
     31395       263  POPC      C211           13.4412324053       53.2832063043       -9.3828040977  MEMB      263             0.0000000000
     31396       263  POPC      H11R           14.2470194131       52.8372297209       -8.7614073848  MEMB      263             0.0000000000
     31397       263  POPC      H11S           13.6314290548       53.1960563361      -10.4739277534  MEMB      263             0.0000000000
     31398       263  POPC      C212           12.2751376748       52.3223474327       -9.0576938165  MEMB      263             0.0000000000
     31399       263  POPC      H12R           12.5829651178       51.2941815182       -9.3448142423  MEMB      263             0.0000000000
     31400       263  POPC      H12S           11.3757800873       52.5359554109       -9.6740124879  MEMB      263             0.0000000000
     31401       263  POPC      C213           11.9222440120       52.2440962765       -7.5682873917  MEMB      263             0.0000000000
     31402       263  POPC      H13R           10.8954516269       51.8317807671       -7.4682168802  MEMB      263             0.0000000000
     31403       263  POPC      H13S           11.7973667851       53.3313430831       -7.3769208564  MEMB      263             0.0000000000
     31404       263  POPC      C214           12.7612629394       51.4861626827       -6.5431806134  MEMB      263             0.0000000000
     31405       263  POPC      H14R           13.8222212285       51.7763880752       -6.6995706134  MEMB      263             0.0000000000
     31406       263  POPC      H14S           12.5967286344       50.3995866394       -6.7062810021  MEMB      263             0.0000000000
     31407       263  POPC      C215           12.3233902830       51.8943561434       -5.1120002874  MEMB      263             0.0000000000
     31408       263  POPC      H15R           12.8165322847       51.1020514279       -4.5091861785  MEMB      263             0.0000000000
     31409       263  POPC      H15S           11.2238230551       51.8708087850       -4.9547810938  MEMB      263             0.0000000000
     31410       263  POPC      C216           12.7449466037       53.3294484686       -4.7056810582  MEMB      263             0.0000000000
     31411       263  POPC      H16R           12.4047162061       54.0228873741       -5.5042469022  MEMB      263             0.0000000000
     31412       263  POPC      H16S           13.8471147487       53.3502755029       -4.5674331576  MEMB      263             0.0000000000
     31413       263  POPC      C217           12.0149612814       53.8456873217       -3.4695619968  MEMB      263             0.0000000000
     31414       263  POPC      H17R           12.2474810601       53.1962227172       -2.5986700217  MEMB      263             0.0000000000
     31415       263  POPC      H17S           10.9600375474       53.6828496169       -3.7776871297  MEMB      263             0.0000000000
     31416       263  POPC      C218           12.2960028973       55.3532326937       -3.2229382583  MEMB      263             0.0000000000
     31417       263  POPC      H18R           11.9514966486       55.9510709206       -4.0936996758  MEMB      263             0.0000000000
     31418       263  POPC      H18S           13.3994185057       55.3291838130       -3.0955940735  MEMB      263             0.0000000000
     31419       263  POPC      H18T           11.7264716428       55.7236823942       -2.3438930771  MEMB      263             0.0000000000
     31420       263  POPC      C33            14.9102561680       49.0655925648      -13.5656841056  MEMB      263             0.0000000000
     31421       263  POPC      H3X            14.1780922712       48.3732604986      -13.0977807354  MEMB      263             0.0000000000
     31422       263  POPC      H3Y            14.6398074801       50.1176049153      -13.3323419730  MEMB      263             0.0000000000
     31423       263  POPC      C34            16.3104240139       49.0436986666      -12.8743799225  MEMB      263             0.0000000000
     31424       263  POPC      H4X            17.0066686993       49.8103957997      -13.2765484247  MEMB      263             0.0000000000
     31425       263  POPC      H4Y            16.5829084384       47.9676599930      -12.9214358661  MEMB      263             0.0000000000
     31426       263  POPC      C35            16.2159579664       49.3533843050      -11.3907305452  MEMB      263             0.0000000000
     31427       263  POPC      H5X            15.4750792802       48.6900143581      -10.8953930226  MEMB      263             0.0000000000
     31428       263  POPC      H5Y            15.8207841910       50.3893966028      -11.3211815241  MEMB      263             0.0000000000
     31429       263  POPC      C36            17.5698025360       49.3870178089      -10.6780361489  MEMB      263             0.0000000000
     31430       263  POPC      H6X            18.3428054614       49.9060977487      -11.2841249255  MEMB      263             0.0000000000
     31431       263  POPC      H6Y            17.9239300254       48.3345007949      -10.6445370218  MEMB      263             0.0000000000
     31432       263  POPC      C37            17.5414602404       50.0089959759       -9.2636121367  MEMB      263             0.0000000000
     31433       263  POPC      H7X            16.6703836494       49.5851999757       -8.7196052279  MEMB      263             0.0000000000
     31434       263  POPC      H7Y            17.4072207540       51.1108870711       -9.3098389969  MEMB      263             0.0000000000
     31435       263  POPC      C38            18.8701878676       49.5837825702       -8.4760835712  MEMB      263             0.0000000000
     31436       263  POPC      H8X            19.7558554625       49.7291825183       -9.1308911564  MEMB      263             0.0000000000
     31437       263  POPC      H8Y            18.9468176225       48.4827149938       -8.3492016051  MEMB      263             0.0000000000
     31438       263  POPC      C39            18.9734204223       50.2628115638       -7.0578665175  MEMB      263             0.0000000000
     31439       263  POPC      H9X            18.8674831771       51.3558997056       -7.2259624222  MEMB      263             0.0000000000
     31440       263  POPC      H9Y            19.9522336224       50.1291569932       -6.5495533596  MEMB      263             0.0000000000
     31441       263  POPC      C310           17.8742816437       49.8592479495       -6.0183471467  MEMB      263             0.0000000000
     31442       263  POPC      H10X           18.0820823841       48.9033649091       -5.4916330659  MEMB      263             0.0000000000
     31443       263  POPC      H10Y           16.9538658134       49.7296387605       -6.6269169180  MEMB      263             0.0000000000
     31444       263  POPC      C311           17.8194240740       50.8240216322       -4.8398054793  MEMB      263             0.0000000000
     31445       263  POPC      H11X           17.5741912253       51.7929907637       -5.3248622996  MEMB      263             0.0000000000
     31446       263  POPC      H11Y           18.7921576238       50.9575815602       -4.3199287069  MEMB      263             0.0000000000
     31447       263  POPC      C312           16.6359379382       50.6582589053       -3.7765012356  MEMB      263             0.0000000000
     31448       263  POPC      H12X           16.7210859557       49.8064635739       -3.0683245003  MEMB      263             0.0000000000
     31449       263  POPC      H12Y           15.6503733098       50.6478834077       -4.2892158116  MEMB      263             0.0000000000
     31450       263  POPC      C313           16.3813789200       51.8952291724       -2.8701779041  MEMB      263             0.0000000000
     31451       263  POPC      H13X           16.1001854694       52.8376799477       -3.3869358790  MEMB      263             0.0000000000
     31452       263  POPC      H13Y           17.3780344664       52.0755483135       -2.4135781864  MEMB      263             0.0000000000
     31453       263  POPC      C314           15.3133804720       51.6587442273       -1.8546313454  MEMB      263             0.0000000000
     31454       263  POPC      H14X           15.4383146833       50.6284312591       -1.4581891667  MEMB      263             0.0000000000
     31455       263  POPC      H14Y           14.3434928213       51.5379635937       -2.3828850242  MEMB      263             0.0000000000
     31456       263  POPC      C315           15.1669825109       52.7631307375       -0.7602545910  MEMB      263             0.0000000000
     31457       263  POPC      H15X           14.1891021463       52.5830883409       -0.2646167863  MEMB      263             0.0000000000
     31458       263  POPC      H15Y           15.2408067246       53.7552013224       -1.2548929630  MEMB      263             0.0000000000
     31459       263  POPC      C316           15.9861809453       52.5220037083        0.4886579013  MEMB      263             0.0000000000
     31460       263  POPC      H16X           15.8568204826       53.3276961666        1.2426134623  MEMB      263             0.0000000000
     31461       263  POPC      H16Y           17.0123589076       52.7180129737        0.1106895970  MEMB      263             0.0000000000
     31462       263  POPC      H16Z           15.8488194058       51.5077287280        0.9207449481  MEMB      263             0.0000000000
     31463       264  POPC      N             -46.3026998743       31.0728935699      -20.7255675400  MEMB      264             0.0000000000
     31464       264  POPC      C12           -46.9713697396       31.3695989069      -19.3547102733  MEMB      264             0.0000000000
     31465       264  POPC      H12A          -48.0201181070       31.1177274237      -19.2991439444  MEMB      264             0.0000000000
     31466       264  POPC      H12B          -46.8498420521       32.4234364694      -19.1520837256  MEMB      264             0.0000000000
     31467       264  POPC      C13           -46.4766951787       29.7001311921      -21.2002497331  MEMB      264             0.0000000000
     31468       264  POPC      H13A          -45.6566690462       29.0293157509      -20.9905740730  MEMB      264             0.0000000000
     31469       264  POPC      H13B          -47.4234546129       29.3375190423      -20.8280146694  MEMB      264             0.0000000000
     31470       264  POPC      H13C          -46.4774882645       29.5800607660      -22.2735541084  MEMB      264             0.0000000000
     31471       264  POPC      C14           -46.8051200379       32.0499553009      -21.7205172022  MEMB      264             0.0000000000
     31472       264  POPC      H14A          -46.7048405170       31.6000107924      -22.6971923550  MEMB      264             0.0000000000
     31473       264  POPC      H14B          -47.8570573022       32.2132617431      -21.5384212023  MEMB      264             0.0000000000
     31474       264  POPC      H14C          -46.2132342725       32.9528676872      -21.6918753945  MEMB      264             0.0000000000
     31475       264  POPC      C15           -44.8075542013       31.4096020710      -20.6613058494  MEMB      264             0.0000000000
     31476       264  POPC      H15A          -44.7041819512       32.4471671098      -20.3799293662  MEMB      264             0.0000000000
     31477       264  POPC      H15B          -44.2769108579       31.3355045836      -21.5990301018  MEMB      264             0.0000000000
     31478       264  POPC      H15C          -44.2916156399       30.9354367080      -19.8394940523  MEMB      264             0.0000000000
     31479       264  POPC      C11           -46.4610336003       30.6398295607      -18.0981035832  MEMB      264             0.0000000000
     31480       264  POPC      H11A          -46.9441695035       30.9971961631      -17.1636574558  MEMB      264             0.0000000000
     31481       264  POPC      H11B          -45.3621399181       30.8028599448      -18.1113225360  MEMB      264             0.0000000000
     31482       264  POPC      P             -45.9003755322       28.1852936471      -17.4683996052  MEMB      264             0.0000000000
     31483       264  POPC      O13           -44.5085053222       28.5881342953      -17.2428113152  MEMB      264             0.0000000000
     31484       264  POPC      O14           -46.0985179835       26.9884044858      -18.2816427153  MEMB      264             0.0000000000
     31485       264  POPC      O12           -46.7321787693       29.2955799102      -18.2053200560  MEMB      264             0.0000000000
     31486       264  POPC      O11           -46.6873807692       27.9944428962      -16.0413721256  MEMB      264             0.0000000000
     31487       264  POPC      C1            -48.1139329573       28.0170750252      -15.7539122710  MEMB      264             0.0000000000
     31488       264  POPC      HA            -48.3378428662       27.4304684462      -14.8373543479  MEMB      264             0.0000000000
     31489       264  POPC      HB            -48.6074467284       27.5128810930      -16.6121391893  MEMB      264             0.0000000000
     31490       264  POPC      C2            -48.6694019326       29.4935931588      -15.5516275370  MEMB      264             0.0000000000
     31491       264  POPC      HS            -48.7136734311       29.9586806314      -16.5596228798  MEMB      264             0.0000000000
     31492       264  POPC      O21           -47.7772899758       30.1441071176      -14.6197863075  MEMB      264             0.0000000000
     31493       264  POPC      C21           -47.8767966016       31.5247437336      -14.7475055075  MEMB      264             0.0000000000
     31494       264  POPC      O22           -48.5464245913       32.1221764654      -15.5556619933  MEMB      264             0.0000000000
     31495       264  POPC      C22           -46.8894121069       32.1782093725      -13.7481057743  MEMB      264             0.0000000000
     31496       264  POPC      H2R           -47.1295684457       33.2628804003      -13.7597358003  MEMB      264             0.0000000000
     31497       264  POPC      H2S           -45.8592901450       32.0091927473      -14.1283729336  MEMB      264             0.0000000000
     31498       264  POPC      C3            -50.1349710604       29.4608558887      -14.9692288728  MEMB      264             0.0000000000
     31499       264  POPC      HX            -50.8187017558       29.1290023133      -15.7796033723  MEMB      264             0.0000000000
     31500       264  POPC      HY            -50.4512544900       30.4959263249      -14.7184009808  MEMB      264             0.0000000000
     31501       264  POPC      O31           -50.5406305533       28.5781422134      -13.9084679802  MEMB      264             0.0000000000
     31502       264  POPC      C31           -50.2109502948       28.8809820714      -12.7122473851  MEMB      264             0.0000000000
     31503       264  POPC      O32           -49.7174260909       29.9666054828      -12.4010510661  MEMB      264             0.0000000000
     31504       264  POPC      C32           -50.6442937645       27.7470357743      -11.7274253014  MEMB      264             0.0000000000
     31505       264  POPC      H2X           -49.8613768141       26.9625480840      -11.6503464827  MEMB      264             0.0000000000
     31506       264  POPC      H2Y           -51.6479227965       27.3370650941      -11.9702707682  MEMB      264             0.0000000000
     31507       264  POPC      C23           -46.8998665932       31.5477832633      -12.3478202745  MEMB      264             0.0000000000
     31508       264  POPC      H3R           -46.8265737433       30.4402366659      -12.3956691515  MEMB      264             0.0000000000
     31509       264  POPC      H3S           -47.9172258118       31.6755110040      -11.9200505153  MEMB      264             0.0000000000
     31510       264  POPC      C24           -46.0900417989       32.2593088640      -11.2711651270  MEMB      264             0.0000000000
     31511       264  POPC      H4R           -45.0765580651       32.3918364613      -11.7066050908  MEMB      264             0.0000000000
     31512       264  POPC      H4S           -45.9689416377       31.4222556201      -10.5507500707  MEMB      264             0.0000000000
     31513       264  POPC      C25           -46.6802441895       33.4969586240      -10.6788924605  MEMB      264             0.0000000000
     31514       264  POPC      H5R           -47.5143954242       33.0373241193      -10.1068362716  MEMB      264             0.0000000000
     31515       264  POPC      H5S           -47.1724763374       34.1454250345      -11.4348819847  MEMB      264             0.0000000000
     31516       264  POPC      C26           -45.6438858723       34.3410048824       -9.9959928730  MEMB      264             0.0000000000
     31517       264  POPC      H6R           -46.1876592157       35.2943398548       -9.8234143478  MEMB      264             0.0000000000
     31518       264  POPC      H6S           -44.8389219601       34.5417089958      -10.7349595899  MEMB      264             0.0000000000
     31519       264  POPC      C27           -44.9019208288       33.7878988604       -8.8549122670  MEMB      264             0.0000000000
     31520       264  POPC      H7R           -43.9363241017       34.3303309509       -8.7670975917  MEMB      264             0.0000000000
     31521       264  POPC      H7S           -44.7219510032       32.6948630804       -8.9397923738  MEMB      264             0.0000000000
     31522       264  POPC      C28           -45.6492089237       34.0137144903       -7.5436775953  MEMB      264             0.0000000000
     31523       264  POPC      H8R           -45.8858709506       35.0878691532       -7.3871415941  MEMB      264             0.0000000000
     31524       264  POPC      H8S           -45.0032881789       33.7450095201       -6.6805989074  MEMB      264             0.0000000000
     31525       264  POPC      C29           -46.8710762885       33.1307802997       -7.4045821526  MEMB      264             0.0000000000
     31526       264  POPC      H91           -47.7264115401       33.3166867104       -8.0707957167  MEMB      264             0.0000000000
     31527       264  POPC      C210          -46.9657912558       32.1285091533       -6.5230521101  MEMB      264             0.0000000000
     31528       264  POPC      H101          -47.8408138677       31.4635660809       -6.5698085660  MEMB      264             0.0000000000
     31529       264  POPC      C211          -46.0973736332       31.5735078866       -5.4305088382  MEMB      264             0.0000000000
     31530       264  POPC      H11R          -44.9998414031       31.6468783516       -5.5865886314  MEMB      264             0.0000000000
     31531       264  POPC      H11S          -46.4437854712       30.5239336150       -5.3177555452  MEMB      264             0.0000000000
     31532       264  POPC      C212          -46.3532234554       32.4258506086       -4.1611822959  MEMB      264             0.0000000000
     31533       264  POPC      H12R          -47.4511892900       32.3208739778       -4.0278714378  MEMB      264             0.0000000000
     31534       264  POPC      H12S          -46.1782089654       33.5108878348       -4.3236161079  MEMB      264             0.0000000000
     31535       264  POPC      C213          -45.7179584221       31.8419580014       -2.8711749961  MEMB      264             0.0000000000
     31536       264  POPC      H13R          -46.1125185140       30.8044025091       -2.9172380026  MEMB      264             0.0000000000
     31537       264  POPC      H13S          -45.9765096976       32.4186792140       -1.9574660146  MEMB      264             0.0000000000
     31538       264  POPC      C214          -44.1822731997       31.7914827462       -2.9629859315  MEMB      264             0.0000000000
     31539       264  POPC      H14R          -43.7688863945       32.7590490079       -3.3197046338  MEMB      264             0.0000000000
     31540       264  POPC      H14S          -43.9494947489       31.1303022078       -3.8249465313  MEMB      264             0.0000000000
     31541       264  POPC      C215          -43.5470796760       31.3477616691       -1.6157135770  MEMB      264             0.0000000000
     31542       264  POPC      H15R          -43.7727964356       30.2643308018       -1.5179845827  MEMB      264             0.0000000000
     31543       264  POPC      H15S          -44.0694985175       32.0069399777       -0.8898453022  MEMB      264             0.0000000000
     31544       264  POPC      C216          -42.0098593201       31.4444813393       -1.5648926132  MEMB      264             0.0000000000
     31545       264  POPC      H16R          -41.6761644054       32.4890314199       -1.7434529468  MEMB      264             0.0000000000
     31546       264  POPC      H16S          -41.6889885868       30.8405809996       -2.4404868056  MEMB      264             0.0000000000
     31547       264  POPC      C217          -41.3540992019       30.9525701601       -0.3289612077  MEMB      264             0.0000000000
     31548       264  POPC      H17R          -40.2732009367       31.1960673140       -0.4107497322  MEMB      264             0.0000000000
     31549       264  POPC      H17S          -41.5060939775       29.8523714353       -0.3569184988  MEMB      264             0.0000000000
     31550       264  POPC      C218          -41.9694838532       31.6331890736        0.9776281116  MEMB      264             0.0000000000
     31551       264  POPC      H18R          -43.0652957076       31.8022854435        1.0477977884  MEMB      264             0.0000000000
     31552       264  POPC      H18S          -41.5194190974       32.6464274290        1.0491132969  MEMB      264             0.0000000000
     31553       264  POPC      H18T          -41.5027145503       31.1713292765        1.8738041760  MEMB      264             0.0000000000
     31554       264  POPC      C33           -50.6677937044       28.3713641069      -10.2665217827  MEMB      264             0.0000000000
     31555       264  POPC      H3X           -51.4631322606       29.1453479049      -10.2145001213  MEMB      264             0.0000000000
     31556       264  POPC      H3Y           -49.6671280008       28.7026014699       -9.9154216577  MEMB      264             0.0000000000
     31557       264  POPC      C34           -51.1037715479       27.3515788707       -9.2159034281  MEMB      264             0.0000000000
     31558       264  POPC      H4X           -50.4473757984       26.4603735882       -9.3119179201  MEMB      264             0.0000000000
     31559       264  POPC      H4Y           -52.0719471961       27.0027289345       -9.6345450100  MEMB      264             0.0000000000
     31560       264  POPC      C35           -51.2136806491       27.8518614540       -7.7537430339  MEMB      264             0.0000000000
     31561       264  POPC      H5X           -51.8596139809       27.2428513209       -7.0857618506  MEMB      264             0.0000000000
     31562       264  POPC      H5Y           -51.5428300068       28.9107877615       -7.6855041644  MEMB      264             0.0000000000
     31563       264  POPC      C36           -49.8270555075       27.8608244134       -7.1659122684  MEMB      264             0.0000000000
     31564       264  POPC      H6X           -49.2473841533       28.6588709976       -7.6772089811  MEMB      264             0.0000000000
     31565       264  POPC      H6Y           -49.2886949030       26.9063820497       -7.3490207792  MEMB      264             0.0000000000
     31566       264  POPC      C37           -49.8322925308       28.0801193464       -5.6469472074  MEMB      264             0.0000000000
     31567       264  POPC      H7X           -50.3729717863       27.2483508025       -5.1467997154  MEMB      264             0.0000000000
     31568       264  POPC      H7Y           -50.3422599934       29.0176190096       -5.3381615157  MEMB      264             0.0000000000
     31569       264  POPC      C38           -48.4771724993       28.1049542578       -4.9697246087  MEMB      264             0.0000000000
     31570       264  POPC      H8X           -47.9850042506       29.0158272684       -5.3727149968  MEMB      264             0.0000000000
     31571       264  POPC      H8Y           -47.8368683146       27.2494183768       -5.2736815093  MEMB      264             0.0000000000
     31572       264  POPC      C39           -48.7077127312       28.1061390734       -3.4926482242  MEMB      264             0.0000000000
     31573       264  POPC      H9X           -49.3556969409       27.2371759832       -3.2490471117  MEMB      264             0.0000000000
     31574       264  POPC      H9Y           -49.1068065018       29.1224658464       -3.2874040125  MEMB      264             0.0000000000
     31575       264  POPC      C310          -47.4442056851       28.0658198862       -2.6392431268  MEMB      264             0.0000000000
     31576       264  POPC      H10X          -46.6797399916       28.6822757564       -3.1587578321  MEMB      264             0.0000000000
     31577       264  POPC      H10Y          -47.1603304419       26.9920075749       -2.6134952494  MEMB      264             0.0000000000
     31578       264  POPC      C311          -47.5939969711       28.5707774559       -1.2128992774  MEMB      264             0.0000000000
     31579       264  POPC      H11X          -48.2293788272       29.4735664451       -1.0880677412  MEMB      264             0.0000000000
     31580       264  POPC      H11Y          -46.5872304720       28.7528478511       -0.7797800943  MEMB      264             0.0000000000
     31581       264  POPC      C312          -48.2513894142       27.5371781866       -0.3124540286  MEMB      264             0.0000000000
     31582       264  POPC      H12X          -47.7252507524       26.6294483777       -0.6778651092  MEMB      264             0.0000000000
     31583       264  POPC      H12Y          -49.3454828344       27.4072737895       -0.4552999242  MEMB      264             0.0000000000
     31584       264  POPC      C313          -48.0196626247       27.6674124568        1.2422080164  MEMB      264             0.0000000000
     31585       264  POPC      H13X          -46.9802687994       27.3254713886        1.4347128390  MEMB      264             0.0000000000
     31586       264  POPC      H13Y          -48.6541996187       26.9318620971        1.7813272912  MEMB      264             0.0000000000
     31587       264  POPC      C314          -48.3638456298       29.0012294459        1.9444589341  MEMB      264             0.0000000000
     31588       264  POPC      H14X          -47.7610456076       29.7589086749        1.3995964015  MEMB      264             0.0000000000
     31589       264  POPC      H14Y          -47.8738947507       28.9106801301        2.9374699715  MEMB      264             0.0000000000
     31590       264  POPC      C315          -49.9291251867       29.3109833099        1.9221991559  MEMB      264             0.0000000000
     31591       264  POPC      H15X          -50.3122495590       28.3345457451        2.2884064299  MEMB      264             0.0000000000
     31592       264  POPC      H15Y          -50.2928064888       29.5943961043        0.9113919369  MEMB      264             0.0000000000
     31593       264  POPC      C316          -50.2412781273       30.6137604049        2.7560208127  MEMB      264             0.0000000000
     31594       264  POPC      H16X          -51.1818038540       30.9129941433        2.2459327651  MEMB      264             0.0000000000
     31595       264  POPC      H16Y          -49.4358850888       31.3778394872        2.7130507970  MEMB      264             0.0000000000
     31596       264  POPC      H16Z          -50.4477796068       30.2966732039        3.8005944741  MEMB      264             0.0000000000
     31597       265  POPC      N              58.8492361074        4.3158717351      -18.9671682484  MEMB      265             0.0000000000
     31598       265  POPC      C12            57.7404316352        3.9728989107      -17.9895555506  MEMB      265             0.0000000000
     31599       265  POPC      H12A           57.5072637210        4.8785243391      -17.4493006828  MEMB      265             0.0000000000
     31600       265  POPC      H12B           58.2319660159        3.3465431139      -17.2598486006  MEMB      265             0.0000000000
     31601       265  POPC      C13            58.4146304508        5.6820356386      -19.6136180465  MEMB      265             0.0000000000
     31602       265  POPC      H13A           57.7826542276        5.3482021734      -20.4232853575  MEMB      265             0.0000000000
     31603       265  POPC      H13B           57.8564279168        6.2019663327      -18.8491038357  MEMB      265             0.0000000000
     31604       265  POPC      H13C           59.2986256668        6.1973543745      -19.9591598793  MEMB      265             0.0000000000
     31605       265  POPC      C14            60.1322214041        4.6221894349      -18.2700242967  MEMB      265             0.0000000000
     31606       265  POPC      H14A           60.7212469566        5.0787945687      -19.0516640873  MEMB      265             0.0000000000
     31607       265  POPC      H14B           59.8576470927        5.3505750641      -17.5213832614  MEMB      265             0.0000000000
     31608       265  POPC      H14C           60.5222935573        3.7049091617      -17.8542831888  MEMB      265             0.0000000000
     31609       265  POPC      C15            59.0636769894        3.2344039422      -20.0259752057  MEMB      265             0.0000000000
     31610       265  POPC      H15A           59.4931674435        2.3596938993      -19.5603357355  MEMB      265             0.0000000000
     31611       265  POPC      H15B           59.7158892686        3.5693909615      -20.8189461364  MEMB      265             0.0000000000
     31612       265  POPC      H15C           58.0723791503        3.0187504276      -20.3964102448  MEMB      265             0.0000000000
     31613       265  POPC      C11            56.4584169356        3.3466261196      -18.3371433813  MEMB      265             0.0000000000
     31614       265  POPC      H11A           55.9838063209        3.2574024424      -17.3365910734  MEMB      265             0.0000000000
     31615       265  POPC      H11B           56.6768612234        2.3197063466      -18.7005150085  MEMB      265             0.0000000000
     31616       265  POPC      P              54.4114633951        4.9081094152      -19.2251029628  MEMB      265             0.0000000000
     31617       265  POPC      O13            53.2961546151        4.2287498708      -18.6171871429  MEMB      265             0.0000000000
     31618       265  POPC      O14            54.1297034810        5.6413556573      -20.4914467103  MEMB      265             0.0000000000
     31619       265  POPC      O12            55.6882510400        3.9451137232      -19.3587108547  MEMB      265             0.0000000000
     31620       265  POPC      O11            54.8960541646        5.8661061503      -18.1040676004  MEMB      265             0.0000000000
     31621       265  POPC      C1             55.2741791113        7.2246121036      -18.4961904244  MEMB      265             0.0000000000
     31622       265  POPC      HA             54.5779595028        7.6337862186      -19.2591948136  MEMB      265             0.0000000000
     31623       265  POPC      HB             56.3180983804        7.1858531020      -18.8744118583  MEMB      265             0.0000000000
     31624       265  POPC      C2             55.2481155948        8.1128684623      -17.2217463995  MEMB      265             0.0000000000
     31625       265  POPC      HS             55.8865784423        9.0149403266      -17.3355554560  MEMB      265             0.0000000000
     31626       265  POPC      O21            55.6523618454        7.4920743521      -16.0485467733  MEMB      265             0.0000000000
     31627       265  POPC      C21            56.9013443566        7.1696351790      -15.9485588513  MEMB      265             0.0000000000
     31628       265  POPC      O22            57.7901269569        7.3388166864      -16.7856941138  MEMB      265             0.0000000000
     31629       265  POPC      C22            57.1474958300        6.3742377137      -14.6678266436  MEMB      265             0.0000000000
     31630       265  POPC      H2R            58.2263303328        6.4729052733      -14.4214489778  MEMB      265             0.0000000000
     31631       265  POPC      H2S            56.9070502436        5.3072282994      -14.8627569588  MEMB      265             0.0000000000
     31632       265  POPC      C3             53.7499482197        8.5841751567      -17.0509684363  MEMB      265             0.0000000000
     31633       265  POPC      HX             53.4300971030        9.0489083687      -18.0080677815  MEMB      265             0.0000000000
     31634       265  POPC      HY             53.5199686590        9.4734293556      -16.4259426827  MEMB      265             0.0000000000
     31635       265  POPC      O31            52.8223810624        7.5255588673      -16.7732224290  MEMB      265             0.0000000000
     31636       265  POPC      C31            52.6784401027        7.2654906829      -15.4171646417  MEMB      265             0.0000000000
     31637       265  POPC      O32            53.0981643347        7.9205135174      -14.4897339685  MEMB      265             0.0000000000
     31638       265  POPC      C32            51.9767561923        5.9359638676      -15.2091586505  MEMB      265             0.0000000000
     31639       265  POPC      H2X            52.3854969909        5.2210015336      -15.9548670515  MEMB      265             0.0000000000
     31640       265  POPC      H2Y            50.8800440921        6.1058305793      -15.2610142667  MEMB      265             0.0000000000
     31641       265  POPC      C23            56.3150435339        6.9275516239      -13.4097531074  MEMB      265             0.0000000000
     31642       265  POPC      H3R            56.4351751655        6.1529366609      -12.6224405150  MEMB      265             0.0000000000
     31643       265  POPC      H3S            55.2459234306        6.9569055131      -13.7104874636  MEMB      265             0.0000000000
     31644       265  POPC      C24            56.7340802616        8.2907535999      -12.8580737627  MEMB      265             0.0000000000
     31645       265  POPC      H4R            56.6499832679        9.0595021383      -13.6557420961  MEMB      265             0.0000000000
     31646       265  POPC      H4S            57.8366631917        8.2274163666      -12.7371605154  MEMB      265             0.0000000000
     31647       265  POPC      C25            55.9863797127        8.8514779565      -11.6725957475  MEMB      265             0.0000000000
     31648       265  POPC      H5R            54.9289885476        8.7668851503      -12.0028816954  MEMB      265             0.0000000000
     31649       265  POPC      H5S            56.3734259502        9.8817470258      -11.5207348862  MEMB      265             0.0000000000
     31650       265  POPC      C26            56.1493007675        8.1109543337      -10.3306103782  MEMB      265             0.0000000000
     31651       265  POPC      H6R            55.8371691159        7.0449037910      -10.3513777902  MEMB      265             0.0000000000
     31652       265  POPC      H6S            55.4749513883        8.4970589729       -9.5365718031  MEMB      265             0.0000000000
     31653       265  POPC      C27            57.6177045987        8.0671807147      -10.0216916724  MEMB      265             0.0000000000
     31654       265  POPC      H7R            58.2625607970        8.8665592366      -10.4453371567  MEMB      265             0.0000000000
     31655       265  POPC      H7S            57.9506991919        7.2939182711      -10.7466049943  MEMB      265             0.0000000000
     31656       265  POPC      C28            58.0956951653        7.7440248943       -8.6299287933  MEMB      265             0.0000000000
     31657       265  POPC      H8R            59.1926381618        7.5763470345       -8.6839736796  MEMB      265             0.0000000000
     31658       265  POPC      H8S            57.6751939109        6.8032102515       -8.2147572310  MEMB      265             0.0000000000
     31659       265  POPC      C29            58.1098610312        8.9657795457       -7.7811845511  MEMB      265             0.0000000000
     31660       265  POPC      H91            58.2321461176        9.9112007561       -8.3300247919  MEMB      265             0.0000000000
     31661       265  POPC      C210           57.8616265646        9.0843744865       -6.5169319445  MEMB      265             0.0000000000
     31662       265  POPC      H101           57.9355408109       10.0733436563       -6.0410359324  MEMB      265             0.0000000000
     31663       265  POPC      C211           57.5361018814        7.9469235075       -5.5929187605  MEMB      265             0.0000000000
     31664       265  POPC      H11R           57.0470711432        7.1521080567       -6.1957772945  MEMB      265             0.0000000000
     31665       265  POPC      H11S           56.7596641510        8.0998545181       -4.8131258747  MEMB      265             0.0000000000
     31666       265  POPC      C212           58.7728383055        7.2838402400       -5.0582250872  MEMB      265             0.0000000000
     31667       265  POPC      H12R           59.1281449130        7.8935349413       -4.2001163552  MEMB      265             0.0000000000
     31668       265  POPC      H12S           59.6606760168        7.4373135438       -5.7082339061  MEMB      265             0.0000000000
     31669       265  POPC      C213           58.7988518660        5.8283938350       -4.5906876694  MEMB      265             0.0000000000
     31670       265  POPC      H13R           58.9460432676        5.1939736510       -5.4907806747  MEMB      265             0.0000000000
     31671       265  POPC      H13S           57.9315915027        5.5509679462       -3.9541227450  MEMB      265             0.0000000000
     31672       265  POPC      C214           60.0319802931        5.6314455931       -3.6792368770  MEMB      265             0.0000000000
     31673       265  POPC      H14R           59.8626193525        6.2922730754       -2.8023425566  MEMB      265             0.0000000000
     31674       265  POPC      H14S           60.8634891508        5.8368240801       -4.3868619561  MEMB      265             0.0000000000
     31675       265  POPC      C215           60.2461500109        4.2200125457       -3.1321862643  MEMB      265             0.0000000000
     31676       265  POPC      H15R           60.5413243071        3.6379349545       -4.0312846490  MEMB      265             0.0000000000
     31677       265  POPC      H15S           59.3031247289        3.8473842137       -2.6781240776  MEMB      265             0.0000000000
     31678       265  POPC      C216           61.3882464305        4.1768013318       -2.0460609242  MEMB      265             0.0000000000
     31679       265  POPC      H16R           61.0000179217        4.7342791393       -1.1669607441  MEMB      265             0.0000000000
     31680       265  POPC      H16S           62.3017810317        4.6484221642       -2.4671892190  MEMB      265             0.0000000000
     31681       265  POPC      C217           61.8722856780        2.8139161210       -1.6300376515  MEMB      265             0.0000000000
     31682       265  POPC      H17R           62.8883925758        2.8969790721       -1.1885076258  MEMB      265             0.0000000000
     31683       265  POPC      H17S           62.0121213231        2.3117428422       -2.6111529416  MEMB      265             0.0000000000
     31684       265  POPC      C218           60.8735485108        1.9769931725       -0.7712024678  MEMB      265             0.0000000000
     31685       265  POPC      H18R           59.9221360915        2.0087414396       -1.3440248082  MEMB      265             0.0000000000
     31686       265  POPC      H18S           60.6916025545        2.3541456879        0.2578628154  MEMB      265             0.0000000000
     31687       265  POPC      H18T           61.3060259633        0.9651567475       -0.6179989867  MEMB      265             0.0000000000
     31688       265  POPC      C33            52.3604104777        5.3446677589      -13.8132403964  MEMB      265             0.0000000000
     31689       265  POPC      H3X            53.4608102828        5.1932159256      -13.8356835544  MEMB      265             0.0000000000
     31690       265  POPC      H3Y            52.0683500379        4.2738907350      -13.7636610220  MEMB      265             0.0000000000
     31691       265  POPC      C34            51.7472581780        6.0967901154      -12.6033110519  MEMB      265             0.0000000000
     31692       265  POPC      H4X            50.6816833492        5.7827825830      -12.6197628769  MEMB      265             0.0000000000
     31693       265  POPC      H4Y            51.9887314027        7.1809435701      -12.6282672337  MEMB      265             0.0000000000
     31694       265  POPC      C35            52.3717534180        5.5358498698      -11.2600182452  MEMB      265             0.0000000000
     31695       265  POPC      H5X            53.4303788313        5.2817496508      -11.4815267753  MEMB      265             0.0000000000
     31696       265  POPC      H5Y            51.9016921178        4.5329718948      -11.1728457187  MEMB      265             0.0000000000
     31697       265  POPC      C36            52.2818403462        6.4816496948      -10.0728507325  MEMB      265             0.0000000000
     31698       265  POPC      H6X            51.2404661882        6.6085665955       -9.7071288509  MEMB      265             0.0000000000
     31699       265  POPC      H6Y            52.5708160167        7.4522329757      -10.5297769147  MEMB      265             0.0000000000
     31700       265  POPC      C37            53.1957612212        5.9819007742       -8.8936889715  MEMB      265             0.0000000000
     31701       265  POPC      H7X            54.2481343243        5.7941604575       -9.1963202894  MEMB      265             0.0000000000
     31702       265  POPC      H7Y            52.7605963695        4.9993518570       -8.6116436044  MEMB      265             0.0000000000
     31703       265  POPC      C38            53.2825940204        6.9311981428       -7.6743877384  MEMB      265             0.0000000000
     31704       265  POPC      H8X            52.2463786671        7.2330912195       -7.4108739411  MEMB      265             0.0000000000
     31705       265  POPC      H8Y            53.7810681090        7.8560591974       -8.0356035697  MEMB      265             0.0000000000
     31706       265  POPC      C39            54.1226404501        6.2063944830       -6.5694052557  MEMB      265             0.0000000000
     31707       265  POPC      H9X            55.2171046047        6.3055408319       -6.7326203761  MEMB      265             0.0000000000
     31708       265  POPC      H9Y            53.8251595754        5.1362382908       -6.5450734676  MEMB      265             0.0000000000
     31709       265  POPC      C310           53.9122259198        6.9831106196       -5.2517014099  MEMB      265             0.0000000000
     31710       265  POPC      H10X           52.8144477339        7.0411347152       -5.0909607938  MEMB      265             0.0000000000
     31711       265  POPC      H10Y           54.4458401178        7.9420596362       -5.4248884620  MEMB      265             0.0000000000
     31712       265  POPC      C311           54.6219945004        6.2842732862       -4.0660904258  MEMB      265             0.0000000000
     31713       265  POPC      H11X           55.6019184931        5.9200793222       -4.4421659736  MEMB      265             0.0000000000
     31714       265  POPC      H11Y           54.0400074188        5.4215460084       -3.6770998425  MEMB      265             0.0000000000
     31715       265  POPC      C312           54.8326020072        7.2160670931       -2.8622687103  MEMB      265             0.0000000000
     31716       265  POPC      H12X           53.8118139622        7.4842707375       -2.5153113341  MEMB      265             0.0000000000
     31717       265  POPC      H12Y           55.4005220030        8.1264690980       -3.1502905242  MEMB      265             0.0000000000
     31718       265  POPC      C313           55.5840461964        6.6870524944       -1.6559067612  MEMB      265             0.0000000000
     31719       265  POPC      H13X           55.6321276344        7.4483506665       -0.8481730262  MEMB      265             0.0000000000
     31720       265  POPC      H13Y           56.6654042682        6.5325231077       -1.8586550493  MEMB      265             0.0000000000
     31721       265  POPC      C314           54.8812233914        5.5228445690       -0.8954991480  MEMB      265             0.0000000000
     31722       265  POPC      H14X           54.6657783638        4.6678846030       -1.5714796790  MEMB      265             0.0000000000
     31723       265  POPC      H14Y           53.9697362970        5.9548628797       -0.4298031995  MEMB      265             0.0000000000
     31724       265  POPC      C315           55.8126777803        4.9522701604        0.2344180826  MEMB      265             0.0000000000
     31725       265  POPC      H15X           56.1878440202        5.7337619607        0.9292871731  MEMB      265             0.0000000000
     31726       265  POPC      H15Y           56.6892447491        4.4633054240       -0.2418848698  MEMB      265             0.0000000000
     31727       265  POPC      C316           55.1809928409        3.8253572200        1.0478147536  MEMB      265             0.0000000000
     31728       265  POPC      H16X           55.8253307659        3.6731275521        1.9399897594  MEMB      265             0.0000000000
     31729       265  POPC      H16Y           54.9703308313        2.9268797472        0.4292033863  MEMB      265             0.0000000000
     31730       265  POPC      H16Z           54.1945369083        4.1955597310        1.4002011231  MEMB      265             0.0000000000
     31731       266  POPC      N              21.5683095007       51.7978116494      -18.9550884912  MEMB      266             0.0000000000
     31732       266  POPC      C12            22.6980086210       52.9341511576      -18.8243155711  MEMB      266             0.0000000000
     31733       266  POPC      H12A           22.6076206930       53.2398174077      -17.7924249545  MEMB      266             0.0000000000
     31734       266  POPC      H12B           22.4729158497       53.7843844119      -19.4510824644  MEMB      266             0.0000000000
     31735       266  POPC      C13            21.8246296267       51.0858694284      -20.1899188454  MEMB      266             0.0000000000
     31736       266  POPC      H13A           22.8518602436       50.9129390873      -20.4750370996  MEMB      266             0.0000000000
     31737       266  POPC      H13B           21.3101417188       50.1367820881      -20.2205064961  MEMB      266             0.0000000000
     31738       266  POPC      H13C           21.4586756686       51.7506309981      -20.9584041160  MEMB      266             0.0000000000
     31739       266  POPC      C14            21.6666984226       50.9115912248      -17.8091722300  MEMB      266             0.0000000000
     31740       266  POPC      H14A           22.7148026038       50.7392909532      -17.6137486468  MEMB      266             0.0000000000
     31741       266  POPC      H14B           21.2201503701       51.4142200904      -16.9639745342  MEMB      266             0.0000000000
     31742       266  POPC      H14C           21.0921165315       50.0643302911      -18.1532720286  MEMB      266             0.0000000000
     31743       266  POPC      C15            20.2107319447       52.4149737672      -19.0587131011  MEMB      266             0.0000000000
     31744       266  POPC      H15A           20.1810289613       53.2104779854      -19.7885696678  MEMB      266             0.0000000000
     31745       266  POPC      H15B           19.9042359702       52.9501106923      -18.1720966242  MEMB      266             0.0000000000
     31746       266  POPC      H15C           19.4460966135       51.6523787323      -19.0721910722  MEMB      266             0.0000000000
     31747       266  POPC      C11            24.1404882227       52.4264757998      -19.0342998321  MEMB      266             0.0000000000
     31748       266  POPC      H11A           24.7684119388       53.2964728226      -18.7459636621  MEMB      266             0.0000000000
     31749       266  POPC      H11B           24.3371216793       52.3177811759      -20.1223447145  MEMB      266             0.0000000000
     31750       266  POPC      P              25.4203683123       50.1739577905      -19.1109511374  MEMB      266             0.0000000000
     31751       266  POPC      O13            26.4904166357       50.9289833286      -19.8490404618  MEMB      266             0.0000000000
     31752       266  POPC      O14            24.5306435956       49.2875541184      -19.9677201172  MEMB      266             0.0000000000
     31753       266  POPC      O12            24.4807960114       51.1939266665      -18.2928394351  MEMB      266             0.0000000000
     31754       266  POPC      O11            25.9311862992       49.2836946700      -17.9079407760  MEMB      266             0.0000000000
     31755       266  POPC      C1             25.1371958080       48.7733098365      -16.8086170492  MEMB      266             0.0000000000
     31756       266  POPC      HA             25.4194237433       47.7167980078      -16.6125271508  MEMB      266             0.0000000000
     31757       266  POPC      HB             24.0712351247       48.7117019525      -17.1156238874  MEMB      266             0.0000000000
     31758       266  POPC      C2             25.4596877598       49.5239692171      -15.4860257665  MEMB      266             0.0000000000
     31759       266  POPC      HS             25.1404349025       50.5803530977      -15.6142897010  MEMB      266             0.0000000000
     31760       266  POPC      O21            26.8459356439       49.4926275159      -15.0611305790  MEMB      266             0.0000000000
     31761       266  POPC      C21            27.6747171531       50.3951560534      -15.5410193275  MEMB      266             0.0000000000
     31762       266  POPC      O22            27.4383477351       51.2341287289      -16.3877944558  MEMB      266             0.0000000000
     31763       266  POPC      C22            29.0110586609       50.2019276987      -14.7486934482  MEMB      266             0.0000000000
     31764       266  POPC      H2R            29.7204707214       49.9944576982      -15.5781578556  MEMB      266             0.0000000000
     31765       266  POPC      H2S            28.9464654347       49.3926446368      -13.9902677552  MEMB      266             0.0000000000
     31766       266  POPC      C3             24.6001060475       48.8220846633      -14.3661098324  MEMB      266             0.0000000000
     31767       266  POPC      HX             24.7118384814       47.7173069725      -14.4022083555  MEMB      266             0.0000000000
     31768       266  POPC      HY             23.5403161757       49.0866433367      -14.5690264589  MEMB      266             0.0000000000
     31769       266  POPC      O31            24.9313667782       49.4198745963      -13.0841878876  MEMB      266             0.0000000000
     31770       266  POPC      C31            24.1240570268       48.9297586216      -12.1485027164  MEMB      266             0.0000000000
     31771       266  POPC      O32            23.2587617728       48.0928653150      -12.3658774623  MEMB      266             0.0000000000
     31772       266  POPC      C32            24.2247703488       49.6848799593      -10.7918993867  MEMB      266             0.0000000000
     31773       266  POPC      H2X            23.7667207541       50.6857586067      -10.9427435383  MEMB      266             0.0000000000
     31774       266  POPC      H2Y            25.2524252606       50.0520328606      -10.5834651167  MEMB      266             0.0000000000
     31775       266  POPC      C23            29.3502896869       51.4979482236      -13.8942733445  MEMB      266             0.0000000000
     31776       266  POPC      H3R            29.5786642625       52.3462296257      -14.5744086121  MEMB      266             0.0000000000
     31777       266  POPC      H3S            30.3256045420       51.3505790633      -13.3830349505  MEMB      266             0.0000000000
     31778       266  POPC      C24            28.1978031300       51.7619257345      -12.8217800147  MEMB      266             0.0000000000
     31779       266  POPC      H4R            28.0304500752       50.8933003893      -12.1496162375  MEMB      266             0.0000000000
     31780       266  POPC      H4S            27.2378234999       51.9083538013      -13.3615196584  MEMB      266             0.0000000000
     31781       266  POPC      C25            28.4812614538       52.9537581004      -11.9877989412  MEMB      266             0.0000000000
     31782       266  POPC      H5R            28.5908561639       53.8649944300      -12.6138646755  MEMB      266             0.0000000000
     31783       266  POPC      H5S            29.5000702271       52.8728647794      -11.5521315121  MEMB      266             0.0000000000
     31784       266  POPC      C26            27.5000035265       53.2527694212      -10.8690229859  MEMB      266             0.0000000000
     31785       266  POPC      H6R            26.4678150678       53.3513094187      -11.2680195940  MEMB      266             0.0000000000
     31786       266  POPC      H6S            27.8354924074       54.2077933533      -10.4110965211  MEMB      266             0.0000000000
     31787       266  POPC      C27            27.4196871234       52.1894201400       -9.7061538872  MEMB      266             0.0000000000
     31788       266  POPC      H7R            27.0382507953       51.2357050121      -10.1295389904  MEMB      266             0.0000000000
     31789       266  POPC      H7S            26.6403779261       52.5478920136       -9.0001112015  MEMB      266             0.0000000000
     31790       266  POPC      C28            28.7157836538       51.9915773053       -8.8257312303  MEMB      266             0.0000000000
     31791       266  POPC      H8R            29.1891927428       52.9795639046       -8.6411051059  MEMB      266             0.0000000000
     31792       266  POPC      H8S            29.3364144991       51.4771918121       -9.5902875805  MEMB      266             0.0000000000
     31793       266  POPC      C29            28.5110720503       51.1098079000       -7.6376627356  MEMB      266             0.0000000000
     31794       266  POPC      H91            28.9257365700       50.1134133468       -7.8503861514  MEMB      266             0.0000000000
     31795       266  POPC      C210           28.1193434154       51.5081621703       -6.3830432058  MEMB      266             0.0000000000
     31796       266  POPC      H101           28.2117977031       50.8011627548       -5.5454247918  MEMB      266             0.0000000000
     31797       266  POPC      C211           27.8236668556       52.8163311271       -5.8327188207  MEMB      266             0.0000000000
     31798       266  POPC      H11R           26.7261071660       52.9759574106       -5.8975523724  MEMB      266             0.0000000000
     31799       266  POPC      H11S           28.1716985220       53.6219650632       -6.5140029394  MEMB      266             0.0000000000
     31800       266  POPC      C212           28.3303520041       53.0992062703       -4.4187826045  MEMB      266             0.0000000000
     31801       266  POPC      H12R           28.0603058465       54.1400797764       -4.1395364590  MEMB      266             0.0000000000
     31802       266  POPC      H12S           29.4389969546       53.1699273441       -4.4338095894  MEMB      266             0.0000000000
     31803       266  POPC      C213           27.6547375531       52.3111464141       -3.3339295403  MEMB      266             0.0000000000
     31804       266  POPC      H13R           28.0941189664       51.2923010986       -3.2771921626  MEMB      266             0.0000000000
     31805       266  POPC      H13S           26.6310995529       52.1292233572       -3.7255792476  MEMB      266             0.0000000000
     31806       266  POPC      C214           27.6416144590       52.9158635638       -1.9136757933  MEMB      266             0.0000000000
     31807       266  POPC      H14R           27.4509331310       54.0067145511       -2.0031458229  MEMB      266             0.0000000000
     31808       266  POPC      H14S           28.5688480899       52.6282013362       -1.3734814781  MEMB      266             0.0000000000
     31809       266  POPC      C215           26.5480730730       52.2999820256       -1.0960275897  MEMB      266             0.0000000000
     31810       266  POPC      H15R           26.4977634995       51.1962523552       -0.9795346842  MEMB      266             0.0000000000
     31811       266  POPC      H15S           25.6677706796       52.6662852185       -1.6663012432  MEMB      266             0.0000000000
     31812       266  POPC      C216           26.4901256220       52.9659850175        0.3028899962  MEMB      266             0.0000000000
     31813       266  POPC      H16R           26.6064580011       54.0532932152        0.1065510702  MEMB      266             0.0000000000
     31814       266  POPC      H16S           27.3611443845       52.5964077337        0.8851789724  MEMB      266             0.0000000000
     31815       266  POPC      C217           25.2540882339       52.6209998581        1.0655196767  MEMB      266             0.0000000000
     31816       266  POPC      H17R           25.3222733056       51.5281162720        1.2533429791  MEMB      266             0.0000000000
     31817       266  POPC      H17S           24.4059137540       52.7784547434        0.3654286272  MEMB      266             0.0000000000
     31818       266  POPC      C218           25.0131345084       53.2166295724        2.4365526310  MEMB      266             0.0000000000
     31819       266  POPC      H18R           25.3457450500       54.2766090485        2.4249501131  MEMB      266             0.0000000000
     31820       266  POPC      H18S           25.6376095225       52.6930687638        3.1916929891  MEMB      266             0.0000000000
     31821       266  POPC      H18T           23.9302499011       53.0577194446        2.6274205123  MEMB      266             0.0000000000
     31822       266  POPC      C33            23.4756240857       48.9368977554       -9.7077096530  MEMB      266             0.0000000000
     31823       266  POPC      H3X            23.9768513657       47.9768516045       -9.4599117728  MEMB      266             0.0000000000
     31824       266  POPC      H3Y            22.4838019431       48.6311824710      -10.1041284000  MEMB      266             0.0000000000
     31825       266  POPC      C34            23.2440107935       49.8310567781       -8.4594555485  MEMB      266             0.0000000000
     31826       266  POPC      H4X            22.5513627652       49.2851399423       -7.7837826506  MEMB      266             0.0000000000
     31827       266  POPC      H4Y            22.8067162600       50.7858715647       -8.8219794252  MEMB      266             0.0000000000
     31828       266  POPC      C35            24.5473863038       50.2354951327       -7.6500920020  MEMB      266             0.0000000000
     31829       266  POPC      H5X            25.1389511957       50.9457651566       -8.2664433805  MEMB      266             0.0000000000
     31830       266  POPC      H5Y            25.1253724897       49.3138477189       -7.4246616340  MEMB      266             0.0000000000
     31831       266  POPC      C36            24.3112933778       51.1461531033       -6.4452879177  MEMB      266             0.0000000000
     31832       266  POPC      H6X            23.6101339129       51.9752033919       -6.6805988326  MEMB      266             0.0000000000
     31833       266  POPC      H6Y            25.2725148679       51.5442017682       -6.0555040520  MEMB      266             0.0000000000
     31834       266  POPC      C37            23.6226453541       50.4298877146       -5.2757208288  MEMB      266             0.0000000000
     31835       266  POPC      H7X            24.2513125657       49.6079835713       -4.8712801011  MEMB      266             0.0000000000
     31836       266  POPC      H7Y            22.7408344831       49.9297894623       -5.7302889458  MEMB      266             0.0000000000
     31837       266  POPC      C38            23.3349708777       51.3991078519       -4.1082386435  MEMB      266             0.0000000000
     31838       266  POPC      H8X            23.1211539484       52.4210242668       -4.4880934085  MEMB      266             0.0000000000
     31839       266  POPC      H8Y            24.3007780635       51.6078219463       -3.6003252255  MEMB      266             0.0000000000
     31840       266  POPC      C39            22.3112373943       50.9093401706       -3.0499651303  MEMB      266             0.0000000000
     31841       266  POPC      H9X            21.3389488508       50.7994355297       -3.5761745073  MEMB      266             0.0000000000
     31842       266  POPC      H9Y            22.1817717846       51.7718618669       -2.3617675224  MEMB      266             0.0000000000
     31843       266  POPC      C310           22.4234409494       49.5951672627       -2.3655759088  MEMB      266             0.0000000000
     31844       266  POPC      H10X           23.4402158394       49.4948897477       -1.9291865096  MEMB      266             0.0000000000
     31845       266  POPC      H10Y           22.6221776497       48.7726358401       -3.0854821207  MEMB      266             0.0000000000
     31846       266  POPC      C311           21.3030822630       49.3149299150       -1.4040556432  MEMB      266             0.0000000000
     31847       266  POPC      H11X           21.3496244649       48.2766905203       -1.0113535384  MEMB      266             0.0000000000
     31848       266  POPC      H11Y           20.3360220090       49.4390771047       -1.9366921266  MEMB      266             0.0000000000
     31849       266  POPC      C312           21.3623142121       50.3291113474       -0.1841203796  MEMB      266             0.0000000000
     31850       266  POPC      H12X           20.5028144112       50.0450569015        0.4600027366  MEMB      266             0.0000000000
     31851       266  POPC      H12Y           21.1777018056       51.3486838198       -0.5850093835  MEMB      266             0.0000000000
     31852       266  POPC      C313           22.6207474793       50.3063702346        0.6470874082  MEMB      266             0.0000000000
     31853       266  POPC      H13X           22.6465299549       51.0189264571        1.4990980493  MEMB      266             0.0000000000
     31854       266  POPC      H13Y           23.5171399311       50.5725217556        0.0471178249  MEMB      266             0.0000000000
     31855       266  POPC      C314           22.8917097715       48.8544701393        1.1943530886  MEMB      266             0.0000000000
     31856       266  POPC      H14X           23.9470300874       48.7790283188        1.5333633070  MEMB      266             0.0000000000
     31857       266  POPC      H14Y           22.8110935256       48.1680888771        0.3244660550  MEMB      266             0.0000000000
     31858       266  POPC      C315           21.8732603832       48.4172409669        2.2889421558  MEMB      266             0.0000000000
     31859       266  POPC      H15X           20.8191093797       48.4420452779        1.9389829346  MEMB      266             0.0000000000
     31860       266  POPC      H15Y           22.0943816926       49.0894991032        3.1453865128  MEMB      266             0.0000000000
     31861       266  POPC      C316           22.1341695637       46.9806596436        2.7473961007  MEMB      266             0.0000000000
     31862       266  POPC      H16X           22.0517327668       46.2638784789        1.9025575740  MEMB      266             0.0000000000
     31863       266  POPC      H16Y           21.5690538106       46.7587855990        3.6778457511  MEMB      266             0.0000000000
     31864       266  POPC      H16Z           23.2159220259       46.8651699997        2.9727706761  MEMB      266             0.0000000000
     31865       267  POPC      N              39.4673029232       35.9175393977      -19.3465826734  MEMB      267             0.0000000000
     31866       267  POPC      C12            40.1235827622       36.5797272816      -18.1618476811  MEMB      267             0.0000000000
     31867       267  POPC      H12A           39.5561555937       36.2478354464      -17.3049496441  MEMB      267             0.0000000000
     31868       267  POPC      H12B           39.9988300477       37.6431204758      -18.3033811574  MEMB      267             0.0000000000
     31869       267  POPC      C13            39.5727254293       34.4386216301      -19.0437415355  MEMB      267             0.0000000000
     31870       267  POPC      H13A           39.0797809072       34.2303416084      -18.1056449903  MEMB      267             0.0000000000
     31871       267  POPC      H13B           39.2734303322       33.9021369852      -19.9320021029  MEMB      267             0.0000000000
     31872       267  POPC      H13C           40.6278023514       34.2350425128      -18.9352598019  MEMB      267             0.0000000000
     31873       267  POPC      C14            38.0516426875       36.3254771157      -19.5773395993  MEMB      267             0.0000000000
     31874       267  POPC      H14A           37.6873152743       35.8714601469      -20.4870285562  MEMB      267             0.0000000000
     31875       267  POPC      H14B           37.4243368494       36.1069519247      -18.7257914972  MEMB      267             0.0000000000
     31876       267  POPC      H14C           37.8993911375       37.3749500549      -19.7818535558  MEMB      267             0.0000000000
     31877       267  POPC      C15            40.2411595364       36.0684414143      -20.6350983060  MEMB      267             0.0000000000
     31878       267  POPC      H15A           40.3164162163       37.1196513238      -20.8710946878  MEMB      267             0.0000000000
     31879       267  POPC      H15B           39.6759323856       35.5287817566      -21.3805415982  MEMB      267             0.0000000000
     31880       267  POPC      H15C           41.1951600970       35.5736685611      -20.5279405760  MEMB      267             0.0000000000
     31881       267  POPC      C11            41.6388273404       36.2885353870      -17.8420626540  MEMB      267             0.0000000000
     31882       267  POPC      H11A           41.7511812274       35.1925980544      -17.6984694239  MEMB      267             0.0000000000
     31883       267  POPC      H11B           41.7469801483       36.8962618982      -16.9183242374  MEMB      267             0.0000000000
     31884       267  POPC      P              42.8602623336       38.3873198788      -18.9395339737  MEMB      267             0.0000000000
     31885       267  POPC      O13            41.7936517784       39.2567612789      -19.2934556201  MEMB      267             0.0000000000
     31886       267  POPC      O14            44.0279303322       38.4952948980      -19.8451343130  MEMB      267             0.0000000000
     31887       267  POPC      O12            42.5381359679       36.8074617630      -18.8655183790  MEMB      267             0.0000000000
     31888       267  POPC      O11            43.4024554371       38.6963537805      -17.4496852642  MEMB      267             0.0000000000
     31889       267  POPC      C1             44.0589497631       39.8801620282      -16.9860353403  MEMB      267             0.0000000000
     31890       267  POPC      HA             43.6549211516       40.7402713800      -17.5616165268  MEMB      267             0.0000000000
     31891       267  POPC      HB             45.1569405035       39.7107661496      -16.9925435676  MEMB      267             0.0000000000
     31892       267  POPC      C2             43.5104990401       40.1118473225      -15.5393324988  MEMB      267             0.0000000000
     31893       267  POPC      HS             44.1379257859       40.8359614237      -14.9769133038  MEMB      267             0.0000000000
     31894       267  POPC      O21            43.4930448969       38.8792922823      -14.7495563456  MEMB      267             0.0000000000
     31895       267  POPC      C21            44.6545700763       38.4648890131      -14.3521879968  MEMB      267             0.0000000000
     31896       267  POPC      O22            45.7299633002       39.0537837209      -14.4105302472  MEMB      267             0.0000000000
     31897       267  POPC      C22            44.5016219739       37.2103330200      -13.5270062465  MEMB      267             0.0000000000
     31898       267  POPC      H2R            44.1048654009       37.4586442553      -12.5194118437  MEMB      267             0.0000000000
     31899       267  POPC      H2S            45.4965678716       36.7216257569      -13.6016304950  MEMB      267             0.0000000000
     31900       267  POPC      C3             42.0482111004       40.6807992426      -15.5720598863  MEMB      267             0.0000000000
     31901       267  POPC      HX             41.4281915154       39.9451463645      -16.1276778544  MEMB      267             0.0000000000
     31902       267  POPC      HY             42.0717820923       41.6685775211      -16.0800550996  MEMB      267             0.0000000000
     31903       267  POPC      O31            41.5174629240       40.8015847612      -14.1984219192  MEMB      267             0.0000000000
     31904       267  POPC      C31            40.9110464887       39.7553909187      -13.6461517074  MEMB      267             0.0000000000
     31905       267  POPC      O32            40.5980984981       38.7273848248      -14.2589011046  MEMB      267             0.0000000000
     31906       267  POPC      C32            40.6301560197       39.9725571708      -12.1360381109  MEMB      267             0.0000000000
     31907       267  POPC      H2X            39.7595209718       40.6480054112      -11.9943152109  MEMB      267             0.0000000000
     31908       267  POPC      H2Y            41.6327741773       40.3513960698      -11.8435334216  MEMB      267             0.0000000000
     31909       267  POPC      C23            43.5086073561       36.2117996495      -14.1444677171  MEMB      267             0.0000000000
     31910       267  POPC      H3R            43.5106050978       36.4174632926      -15.2362640173  MEMB      267             0.0000000000
     31911       267  POPC      H3S            42.4881806439       36.4411483329      -13.7697014833  MEMB      267             0.0000000000
     31912       267  POPC      C24            43.8525556916       34.7543865560      -13.8714690796  MEMB      267             0.0000000000
     31913       267  POPC      H4R            44.9367631346       34.5885242785      -14.0484010775  MEMB      267             0.0000000000
     31914       267  POPC      H4S            43.1801729412       34.1659255500      -14.5317238573  MEMB      267             0.0000000000
     31915       267  POPC      C25            43.5038892242       34.2052725999      -12.4672745285  MEMB      267             0.0000000000
     31916       267  POPC      H5R            43.6975391818       33.1112853491      -12.4708276702  MEMB      267             0.0000000000
     31917       267  POPC      H5S            42.4304657380       34.3907660726      -12.2489282537  MEMB      267             0.0000000000
     31918       267  POPC      C26            44.3140345620       34.8218695302      -11.3374894560  MEMB      267             0.0000000000
     31919       267  POPC      H6R            43.9861177583       35.8523232349      -11.0826235917  MEMB      267             0.0000000000
     31920       267  POPC      H6S            45.3127047512       35.1111916526      -11.7289892591  MEMB      267             0.0000000000
     31921       267  POPC      C27            44.1386488302       34.0623443716       -9.9899990919  MEMB      267             0.0000000000
     31922       267  POPC      H7R            44.3858961310       32.9902797752      -10.1444903253  MEMB      267             0.0000000000
     31923       267  POPC      H7S            43.0801787496       34.0675105780       -9.6524563057  MEMB      267             0.0000000000
     31924       267  POPC      C28            44.9940500111       34.6474464861       -8.8493591935  MEMB      267             0.0000000000
     31925       267  POPC      H8R            45.9254445886       35.0565843634       -9.2959371482  MEMB      267             0.0000000000
     31926       267  POPC      H8S            45.2147173758       33.8235654998       -8.1374267501  MEMB      267             0.0000000000
     31927       267  POPC      C29            44.3582696030       35.6791889997       -7.9300643938  MEMB      267             0.0000000000
     31928       267  POPC      H91            44.8733076270       36.6479075214       -7.8505622703  MEMB      267             0.0000000000
     31929       267  POPC      C210           43.4004999966       35.5256536348       -7.0274365515  MEMB      267             0.0000000000
     31930       267  POPC      H101           43.1035711344       36.3254210837       -6.3330261404  MEMB      267             0.0000000000
     31931       267  POPC      C211           42.7580018679       34.1711663194       -6.6414882346  MEMB      267             0.0000000000
     31932       267  POPC      H11R           42.7964348497       33.4251951055       -7.4639062426  MEMB      267             0.0000000000
     31933       267  POPC      H11S           41.6804966125       34.4284038642       -6.5570345668  MEMB      267             0.0000000000
     31934       267  POPC      C212           43.2781463079       33.5238220867       -5.3994006636  MEMB      267             0.0000000000
     31935       267  POPC      H12R           44.3635962823       33.2994896260       -5.4755207578  MEMB      267             0.0000000000
     31936       267  POPC      H12S           42.8601393868       32.5027946831       -5.2686537547  MEMB      267             0.0000000000
     31937       267  POPC      C213           42.9700855843       34.3487024169       -4.0573677274  MEMB      267             0.0000000000
     31938       267  POPC      H13R           43.1992248672       35.4246063597       -4.2130818090  MEMB      267             0.0000000000
     31939       267  POPC      H13S           43.6711981163       34.0964845632       -3.2332630397  MEMB      267             0.0000000000
     31940       267  POPC      C214           41.4706770034       34.1690476552       -3.6486382868  MEMB      267             0.0000000000
     31941       267  POPC      H14R           41.5934103165       33.1673560746       -3.1840190212  MEMB      267             0.0000000000
     31942       267  POPC      H14S           40.7542780040       33.8896582447       -4.4505326888  MEMB      267             0.0000000000
     31943       267  POPC      C215           41.0176380684       35.3178075129       -2.7489954112  MEMB      267             0.0000000000
     31944       267  POPC      H15R           40.7969121618       36.2026598113       -3.3835331814  MEMB      267             0.0000000000
     31945       267  POPC      H15S           41.8620067274       35.6094752609       -2.0884704934  MEMB      267             0.0000000000
     31946       267  POPC      C216           39.8461364530       35.0847363987       -1.8528229679  MEMB      267             0.0000000000
     31947       267  POPC      H16R           39.7915652825       34.0321927012       -1.5014058145  MEMB      267             0.0000000000
     31948       267  POPC      H16S           38.8799649586       35.0916054411       -2.4012629331  MEMB      267             0.0000000000
     31949       267  POPC      C217           39.8919360122       35.9145248066       -0.5008318582  MEMB      267             0.0000000000
     31950       267  POPC      H17R           40.2851901244       36.9423328679       -0.6534185139  MEMB      267             0.0000000000
     31951       267  POPC      H17S           40.2218715640       35.4528215662        0.4543091241  MEMB      267             0.0000000000
     31952       267  POPC      C218           38.4191152430       36.2410609393       -0.1645125124  MEMB      267             0.0000000000
     31953       267  POPC      H18R           38.3346779569       36.8562254466        0.7567726465  MEMB      267             0.0000000000
     31954       267  POPC      H18S           37.7064377033       35.4274959712        0.0895027165  MEMB      267             0.0000000000
     31955       267  POPC      H18T           37.9237227074       36.7613873384       -1.0119604188  MEMB      267             0.0000000000
     31956       267  POPC      C33            40.2402506240       38.6903894592      -11.3740221467  MEMB      267             0.0000000000
     31957       267  POPC      H3X            40.8779231210       37.7984786820      -11.5534379635  MEMB      267             0.0000000000
     31958       267  POPC      H3Y            39.3266732829       38.3744495229      -11.9216343821  MEMB      267             0.0000000000
     31959       267  POPC      C34            39.9183712446       38.8423402136       -9.8654709015  MEMB      267             0.0000000000
     31960       267  POPC      H4X            40.6539236771       39.5265170174       -9.3909334396  MEMB      267             0.0000000000
     31961       267  POPC      H4Y            39.9625894361       37.9082793001       -9.2655578259  MEMB      267             0.0000000000
     31962       267  POPC      C35            38.4940209078       39.4309822221       -9.5836340989  MEMB      267             0.0000000000
     31963       267  POPC      H5X            37.7884691118       39.1763038043      -10.4031797926  MEMB      267             0.0000000000
     31964       267  POPC      H5Y            38.5920461655       40.5376491957       -9.5839828116  MEMB      267             0.0000000000
     31965       267  POPC      C36            37.8285699188       38.7757877591       -8.3035090302  MEMB      267             0.0000000000
     31966       267  POPC      H6X            37.5592558782       37.7112726578       -8.4726203504  MEMB      267             0.0000000000
     31967       267  POPC      H6Y            36.9405730394       39.4007547564       -8.0685652837  MEMB      267             0.0000000000
     31968       267  POPC      C37            38.7616049147       38.8335210122       -7.0352663747  MEMB      267             0.0000000000
     31969       267  POPC      H7X            39.2073297262       39.8487006439       -7.1064046891  MEMB      267             0.0000000000
     31970       267  POPC      H7Y            39.5474833923       38.0489631530       -7.0696936602  MEMB      267             0.0000000000
     31971       267  POPC      C38            37.9476608892       38.5234266403       -5.7358290757  MEMB      267             0.0000000000
     31972       267  POPC      H8X            37.1393256993       37.7832428056       -5.9176065675  MEMB      267             0.0000000000
     31973       267  POPC      H8Y            37.3141150190       39.4128777491       -5.5313375560  MEMB      267             0.0000000000
     31974       267  POPC      C39            38.9209052784       38.1613799507       -4.5697590225  MEMB      267             0.0000000000
     31975       267  POPC      H9X            39.4885832095       37.2126833445       -4.6794746853  MEMB      267             0.0000000000
     31976       267  POPC      H9Y            38.4367392981       38.0990574840       -3.5717512256  MEMB      267             0.0000000000
     31977       267  POPC      C310           40.0420882473       39.2479432686       -4.5555958475  MEMB      267             0.0000000000
     31978       267  POPC      H10X           39.7114015134       40.2895833584       -4.7554786277  MEMB      267             0.0000000000
     31979       267  POPC      H10Y           40.7199019608       39.0175219684       -5.4051805371  MEMB      267             0.0000000000
     31980       267  POPC      C311           40.8706449610       39.3923351129       -3.2842961415  MEMB      267             0.0000000000
     31981       267  POPC      H11X           41.2030595241       38.3646502830       -3.0241321347  MEMB      267             0.0000000000
     31982       267  POPC      H11Y           40.3464022416       39.8478491192       -2.4171188427  MEMB      267             0.0000000000
     31983       267  POPC      C312           42.1467615082       40.1975513992       -3.3977848815  MEMB      267             0.0000000000
     31984       267  POPC      H12X           41.7800127066       41.2446420891       -3.4562454912  MEMB      267             0.0000000000
     31985       267  POPC      H12Y           42.7037733047       39.8922190026       -4.3092848688  MEMB      267             0.0000000000
     31986       267  POPC      C313           43.1487461006       40.1298296730       -2.1688225613  MEMB      267             0.0000000000
     31987       267  POPC      H13X           42.5521580185       40.3014952506       -1.2474447353  MEMB      267             0.0000000000
     31988       267  POPC      H13Y           43.9322228400       40.9154475812       -2.2261772635  MEMB      267             0.0000000000
     31989       267  POPC      C314           43.9012421786       38.8734175334       -2.0791353568  MEMB      267             0.0000000000
     31990       267  POPC      H14X           44.2408812844       38.6131228582       -3.1044220431  MEMB      267             0.0000000000
     31991       267  POPC      H14Y           43.3987477332       37.9916780889       -1.6270777334  MEMB      267             0.0000000000
     31992       267  POPC      C315           45.2314485955       39.0548826949       -1.2189746235  MEMB      267             0.0000000000
     31993       267  POPC      H15X           44.8930012136       39.0511567223       -0.1607876440  MEMB      267             0.0000000000
     31994       267  POPC      H15Y           45.7748087636       40.0043800489       -1.4127153859  MEMB      267             0.0000000000
     31995       267  POPC      C316           46.0908490285       37.8550949997       -1.3296338591  MEMB      267             0.0000000000
     31996       267  POPC      H16X           46.8130183105       37.9170093426       -0.4876369203  MEMB      267             0.0000000000
     31997       267  POPC      H16Y           46.7394528864       37.7848006143       -2.2289073204  MEMB      267             0.0000000000
     31998       267  POPC      H16Z           45.4758382802       36.9303627631       -1.2987599903  MEMB      267             0.0000000000
     31999       268  POPC      N             -34.1811609884      -45.2130393092      -19.7846596942  MEMB      268             0.0000000000
     32000       268  POPC      C12           -33.3326636165      -46.1280318103      -18.8681497361  MEMB      268             0.0000000000
     32001       268  POPC      H12A          -32.6525530810      -46.6866621347      -19.4940746152  MEMB      268             0.0000000000
     32002       268  POPC      H12B          -33.9907758178      -46.8187594380      -18.3620039565  MEMB      268             0.0000000000
     32003       268  POPC      C13           -34.9595692444      -44.1647254518      -18.9426850175  MEMB      268             0.0000000000
     32004       268  POPC      H13A          -35.5737197736      -43.6603319988      -19.6739896669  MEMB      268             0.0000000000
     32005       268  POPC      H13B          -35.6009349995      -44.6216129594      -18.2035613705  MEMB      268             0.0000000000
     32006       268  POPC      H13C          -34.3444922380      -43.4732401358      -18.3859730979  MEMB      268             0.0000000000
     32007       268  POPC      C14           -33.2813240482      -44.4930774983      -20.7823887883  MEMB      268             0.0000000000
     32008       268  POPC      H14A          -32.6616297815      -45.2204824425      -21.2856392753  MEMB      268             0.0000000000
     32009       268  POPC      H14B          -33.8661935481      -43.9338178691      -21.4976205232  MEMB      268             0.0000000000
     32010       268  POPC      H14C          -32.7101211244      -43.7164268991      -20.2956228722  MEMB      268             0.0000000000
     32011       268  POPC      C15           -35.1929129419      -46.1368052528      -20.4784199879  MEMB      268             0.0000000000
     32012       268  POPC      H15A          -35.9141759493      -45.5563977951      -21.0345732880  MEMB      268             0.0000000000
     32013       268  POPC      H15B          -35.7074664679      -46.6178444846      -19.6597405965  MEMB      268             0.0000000000
     32014       268  POPC      H15C          -34.6574969976      -46.8443206323      -21.0941730240  MEMB      268             0.0000000000
     32015       268  POPC      C11           -32.5370154709      -45.4325844896      -17.7602020240  MEMB      268             0.0000000000
     32016       268  POPC      H11A          -31.8770393877      -46.2083618855      -17.3164430322  MEMB      268             0.0000000000
     32017       268  POPC      H11B          -33.3002759224      -45.0340701231      -17.0581046025  MEMB      268             0.0000000000
     32018       268  POPC      P             -30.2054739657      -44.5263058044      -18.5649223177  MEMB      268             0.0000000000
     32019       268  POPC      O13           -29.5871958480      -43.2218662364      -18.7254351602  MEMB      268             0.0000000000
     32020       268  POPC      O14           -29.9855002323      -45.4791243083      -19.6912403634  MEMB      268             0.0000000000
     32021       268  POPC      O12           -31.7517371099      -44.3113042039      -18.1961998903  MEMB      268             0.0000000000
     32022       268  POPC      O11           -29.6846672348      -45.1668441328      -17.2056970184  MEMB      268             0.0000000000
     32023       268  POPC      C1            -29.3033202977      -46.5469592281      -17.1357745586  MEMB      268             0.0000000000
     32024       268  POPC      HA            -28.2660607748      -46.7341130906      -17.4870396938  MEMB      268             0.0000000000
     32025       268  POPC      HB            -29.9681042034      -47.1755534610      -17.7660544855  MEMB      268             0.0000000000
     32026       268  POPC      C2            -29.4011980023      -47.0772448679      -15.6800891831  MEMB      268             0.0000000000
     32027       268  POPC      HS            -29.0474366735      -48.1259024466      -15.7775114543  MEMB      268             0.0000000000
     32028       268  POPC      O21           -30.7187422158      -47.0254787504      -15.2282433497  MEMB      268             0.0000000000
     32029       268  POPC      C21           -31.0232799930      -47.6881040778      -14.1685656870  MEMB      268             0.0000000000
     32030       268  POPC      O22           -30.3315984761      -48.4798292961      -13.5494459902  MEMB      268             0.0000000000
     32031       268  POPC      C22           -32.4229234121      -47.3621086668      -13.7149274912  MEMB      268             0.0000000000
     32032       268  POPC      H2R           -33.1256871352      -48.1850269968      -13.9664216664  MEMB      268             0.0000000000
     32033       268  POPC      H2S           -32.7606022818      -46.4349746459      -14.2255318159  MEMB      268             0.0000000000
     32034       268  POPC      C3            -28.5855394913      -46.2608272138      -14.6870306598  MEMB      268             0.0000000000
     32035       268  POPC      HX            -27.6492227511      -46.1060646620      -15.2646813086  MEMB      268             0.0000000000
     32036       268  POPC      HY            -28.5198368862      -46.8538913642      -13.7498651899  MEMB      268             0.0000000000
     32037       268  POPC      O31           -29.2385347361      -44.9659179556      -14.5960169733  MEMB      268             0.0000000000
     32038       268  POPC      C31           -29.6373450121      -44.6379518627      -13.4056301377  MEMB      268             0.0000000000
     32039       268  POPC      O32           -29.6949007459      -45.3012071661      -12.3885747157  MEMB      268             0.0000000000
     32040       268  POPC      C32           -30.3447892998      -43.2457335200      -13.6350927983  MEMB      268             0.0000000000
     32041       268  POPC      H2X           -30.9170030429      -43.2449324315      -14.5874016340  MEMB      268             0.0000000000
     32042       268  POPC      H2Y           -29.4823651859      -42.5528357925      -13.7372617747  MEMB      268             0.0000000000
     32043       268  POPC      C23           -32.4065714605      -47.0961414585      -12.2180384993  MEMB      268             0.0000000000
     32044       268  POPC      H3R           -31.9335832955      -46.0935268062      -12.1447780417  MEMB      268             0.0000000000
     32045       268  POPC      H3S           -31.8124085587      -47.9146174282      -11.7582679658  MEMB      268             0.0000000000
     32046       268  POPC      C24           -33.8095884456      -47.2301204648      -11.5295705071  MEMB      268             0.0000000000
     32047       268  POPC      H4R           -34.3488710810      -48.1878256851      -11.6917302522  MEMB      268             0.0000000000
     32048       268  POPC      H4S           -34.3633424412      -46.3732482725      -11.9693974689  MEMB      268             0.0000000000
     32049       268  POPC      C25           -33.6346154763      -47.1559451475      -10.0412200557  MEMB      268             0.0000000000
     32050       268  POPC      H5R           -32.8642049709      -47.9043076540       -9.7570680916  MEMB      268             0.0000000000
     32051       268  POPC      H5S           -34.5504182176      -47.4976878660       -9.5131693050  MEMB      268             0.0000000000
     32052       268  POPC      C26           -33.2491223125      -45.7618617658       -9.4343042446  MEMB      268             0.0000000000
     32053       268  POPC      H6R           -34.1040665178      -45.0560848438       -9.5069000978  MEMB      268             0.0000000000
     32054       268  POPC      H6S           -32.5227185664      -45.3045919770      -10.1396856337  MEMB      268             0.0000000000
     32055       268  POPC      C27           -32.7427086938      -45.8621305490       -7.9698002172  MEMB      268             0.0000000000
     32056       268  POPC      H7R           -33.4731848415      -46.4976233743       -7.4249388095  MEMB      268             0.0000000000
     32057       268  POPC      H7S           -32.6820558994      -44.8535376488       -7.5078665264  MEMB      268             0.0000000000
     32058       268  POPC      C28           -31.3450398845      -46.5281482442       -7.8265534659  MEMB      268             0.0000000000
     32059       268  POPC      H8R           -31.2702526361      -47.4715444114       -8.4085595614  MEMB      268             0.0000000000
     32060       268  POPC      H8S           -31.1587673417      -46.7144203847       -6.7472355015  MEMB      268             0.0000000000
     32061       268  POPC      C29           -30.3662578190      -45.5522489484       -8.3608446189  MEMB      268             0.0000000000
     32062       268  POPC      H91           -30.2389556937      -45.4728206990       -9.4505627137  MEMB      268             0.0000000000
     32063       268  POPC      C210          -29.5504107136      -44.6131834719       -7.8228859716  MEMB      268             0.0000000000
     32064       268  POPC      H101          -28.9403984634      -44.0060038625       -8.5078810430  MEMB      268             0.0000000000
     32065       268  POPC      C211          -29.4518439922      -44.2878945821       -6.3469041930  MEMB      268             0.0000000000
     32066       268  POPC      H11R          -29.8852902915      -45.0851098510       -5.7058950820  MEMB      268             0.0000000000
     32067       268  POPC      H11S          -30.1239666017      -43.4246293012       -6.1536548451  MEMB      268             0.0000000000
     32068       268  POPC      C212          -27.9666949589      -43.9774615330       -6.0390365712  MEMB      268             0.0000000000
     32069       268  POPC      H12R          -27.6295572028      -43.2868553649       -6.8413594090  MEMB      268             0.0000000000
     32070       268  POPC      H12S          -27.3419543486      -44.8928054020       -5.9605142155  MEMB      268             0.0000000000
     32071       268  POPC      C213          -27.8632415529      -43.2083069952       -4.8150620476  MEMB      268             0.0000000000
     32072       268  POPC      H13R          -28.3847503101      -42.2322108038       -4.9129703624  MEMB      268             0.0000000000
     32073       268  POPC      H13S          -26.7691443630      -43.0491722633       -4.7057539661  MEMB      268             0.0000000000
     32074       268  POPC      C214          -28.4343187870      -43.8564967228       -3.5406078068  MEMB      268             0.0000000000
     32075       268  POPC      H14R          -28.1588089995      -44.9197819974       -3.3737556868  MEMB      268             0.0000000000
     32076       268  POPC      H14S          -29.5270758496      -43.8741941163       -3.7403331609  MEMB      268             0.0000000000
     32077       268  POPC      C215          -28.1423030770      -43.0414409049       -2.2881225388  MEMB      268             0.0000000000
     32078       268  POPC      H15R          -28.6320979216      -42.0562537464       -2.4424864996  MEMB      268             0.0000000000
     32079       268  POPC      H15S          -27.0530289753      -42.8256935750       -2.3235619808  MEMB      268             0.0000000000
     32080       268  POPC      C216          -28.5793673529      -43.6735195431       -0.9198130051  MEMB      268             0.0000000000
     32081       268  POPC      H16R          -28.2609413684      -42.9395259620       -0.1489834123  MEMB      268             0.0000000000
     32082       268  POPC      H16S          -28.0131212686      -44.6042295834       -0.7019491998  MEMB      268             0.0000000000
     32083       268  POPC      C217          -30.0850709032      -43.9952243157       -0.7825341098  MEMB      268             0.0000000000
     32084       268  POPC      H17R          -30.1984385043      -44.9608121823       -1.3202223601  MEMB      268             0.0000000000
     32085       268  POPC      H17S          -30.7813131473      -43.1920641665       -1.1058016857  MEMB      268             0.0000000000
     32086       268  POPC      C218          -30.4303523144      -44.3773735720        0.7207277861  MEMB      268             0.0000000000
     32087       268  POPC      H18R          -29.8703637262      -45.2994300959        0.9863311406  MEMB      268             0.0000000000
     32088       268  POPC      H18S          -31.5109947072      -44.4798526795        0.9574362181  MEMB      268             0.0000000000
     32089       268  POPC      H18T          -29.9453213514      -43.5940048453        1.3415329644  MEMB      268             0.0000000000
     32090       268  POPC      C33           -31.3810554643      -42.8084207791      -12.5672178830  MEMB      268             0.0000000000
     32091       268  POPC      H3X           -31.9926081423      -43.6465361273      -12.1698679676  MEMB      268             0.0000000000
     32092       268  POPC      H3Y           -32.0245257658      -42.0210207943      -13.0147312604  MEMB      268             0.0000000000
     32093       268  POPC      C34           -30.6609126764      -42.1930865850      -11.3744671832  MEMB      268             0.0000000000
     32094       268  POPC      H4X           -29.9819812765      -41.3692298463      -11.6820922600  MEMB      268             0.0000000000
     32095       268  POPC      H4Y           -30.2175895126      -43.0552078734      -10.8317589611  MEMB      268             0.0000000000
     32096       268  POPC      C35           -31.6680509253      -41.5024548464      -10.3671414159  MEMB      268             0.0000000000
     32097       268  POPC      H5X           -32.2228076229      -40.7144868397      -10.9200186693  MEMB      268             0.0000000000
     32098       268  POPC      H5Y           -31.1289903589      -40.9671904758       -9.5564464539  MEMB      268             0.0000000000
     32099       268  POPC      C36           -32.7265337969      -42.3938295314       -9.7977569296  MEMB      268             0.0000000000
     32100       268  POPC      H6X           -32.2218501303      -43.1696185414       -9.1831284399  MEMB      268             0.0000000000
     32101       268  POPC      H6Y           -33.2622212257      -42.9572762031      -10.5914112575  MEMB      268             0.0000000000
     32102       268  POPC      C37           -33.8584590259      -41.7321064524       -8.8621711573  MEMB      268             0.0000000000
     32103       268  POPC      H7X           -34.6614129685      -42.4725183915       -8.6587596281  MEMB      268             0.0000000000
     32104       268  POPC      H7Y           -34.3462696990      -40.9847238273       -9.5238218243  MEMB      268             0.0000000000
     32105       268  POPC      C38           -33.2058110063      -41.0508426126       -7.6365843822  MEMB      268             0.0000000000
     32106       268  POPC      H8X           -33.9997283116      -40.4052408790       -7.2039005227  MEMB      268             0.0000000000
     32107       268  POPC      H8Y           -32.3270101260      -40.4013991332       -7.8372154416  MEMB      268             0.0000000000
     32108       268  POPC      C39           -32.9132999019      -41.9786726603       -6.4551299533  MEMB      268             0.0000000000
     32109       268  POPC      H9X           -32.2970325089      -41.3902614913       -5.7421731793  MEMB      268             0.0000000000
     32110       268  POPC      H9Y           -32.3108984106      -42.8390663656       -6.8172852984  MEMB      268             0.0000000000
     32111       268  POPC      C310          -34.1197864612      -42.5107122430       -5.7043858119  MEMB      268             0.0000000000
     32112       268  POPC      H10X          -34.6755041301      -43.1224855765       -6.4468361732  MEMB      268             0.0000000000
     32113       268  POPC      H10Y          -34.6897714634      -41.5769302091       -5.5107632481  MEMB      268             0.0000000000
     32114       268  POPC      C311          -33.8738297551      -43.3224502475       -4.3573643481  MEMB      268             0.0000000000
     32115       268  POPC      H11X          -34.7412058824      -43.0674417000       -3.7116469428  MEMB      268             0.0000000000
     32116       268  POPC      H11Y          -33.0080516596      -42.8661939748       -3.8314557621  MEMB      268             0.0000000000
     32117       268  POPC      C312          -33.7625330543      -44.8485928503       -4.5928785899  MEMB      268             0.0000000000
     32118       268  POPC      H12X          -32.8296838128      -45.0548964218       -5.1599338458  MEMB      268             0.0000000000
     32119       268  POPC      H12Y          -34.6644724983      -45.2838568060       -5.0738892929  MEMB      268             0.0000000000
     32120       268  POPC      C313          -33.6500962181      -45.5792520380       -3.1897514793  MEMB      268             0.0000000000
     32121       268  POPC      H13X          -34.6711540646      -45.8027568505       -2.8131772357  MEMB      268             0.0000000000
     32122       268  POPC      H13Y          -33.0589817579      -44.9540672947       -2.4868662087  MEMB      268             0.0000000000
     32123       268  POPC      C314          -32.7052283273      -46.7828009940       -3.2664164570  MEMB      268             0.0000000000
     32124       268  POPC      H14X          -31.6621399128      -46.4597610986       -3.4711910361  MEMB      268             0.0000000000
     32125       268  POPC      H14Y          -33.0085416827      -47.3180492267       -4.1915275922  MEMB      268             0.0000000000
     32126       268  POPC      C315          -32.9001343894      -47.7408764937       -2.0781847973  MEMB      268             0.0000000000
     32127       268  POPC      H15X          -33.8179692112      -48.2939194641       -2.3715150465  MEMB      268             0.0000000000
     32128       268  POPC      H15Y          -33.0048949320      -47.1952531203       -1.1160817146  MEMB      268             0.0000000000
     32129       268  POPC      C316          -31.8467495925      -48.8304587313       -1.9219387570  MEMB      268             0.0000000000
     32130       268  POPC      H16X          -31.8809362468      -49.3620501886       -2.8969072091  MEMB      268             0.0000000000
     32131       268  POPC      H16Y          -32.2509312321      -49.5385442479       -1.1672381335  MEMB      268             0.0000000000
     32132       268  POPC      H16Z          -30.8280782596      -48.4562818422       -1.6839862934  MEMB      268             0.0000000000
     32133       269  POPC      N               0.9515866353       58.3927465999      -20.3506728033  MEMB      269             0.0000000000
     32134       269  POPC      C12            -0.3106794021       57.4895228955      -20.6153209591  MEMB      269             0.0000000000
     32135       269  POPC      H12A           -0.0330525007       56.7351939468      -21.3366468793  MEMB      269             0.0000000000
     32136       269  POPC      H12B           -1.1183404587       58.0682327956      -21.0386154834  MEMB      269             0.0000000000
     32137       269  POPC      C13             2.1903863501       57.5266368991      -20.2389511385  MEMB      269             0.0000000000
     32138       269  POPC      H13A            3.0909843709       58.1221347061      -20.2123840557  MEMB      269             0.0000000000
     32139       269  POPC      H13B            2.1694931883       56.7503837909      -19.4883548989  MEMB      269             0.0000000000
     32140       269  POPC      H13C            2.2390114833       56.9871065830      -21.1732650747  MEMB      269             0.0000000000
     32141       269  POPC      C14             1.0649313652       59.3680711860      -21.5009527139  MEMB      269             0.0000000000
     32142       269  POPC      H14A            1.7523736255       60.1329130428      -21.1710436154  MEMB      269             0.0000000000
     32143       269  POPC      H14B            1.4307928735       58.9442377800      -22.4244841139  MEMB      269             0.0000000000
     32144       269  POPC      H14C            0.1481820966       59.8766256567      -21.7604583493  MEMB      269             0.0000000000
     32145       269  POPC      C15             0.7868536465       59.1738839411      -19.1699994759  MEMB      269             0.0000000000
     32146       269  POPC      H15A           -0.1258828627       59.7509508602      -19.1525087655  MEMB      269             0.0000000000
     32147       269  POPC      H15B            1.6964442745       59.7057085054      -18.9329181208  MEMB      269             0.0000000000
     32148       269  POPC      H15C            0.8301895453       58.4282190129      -18.3899316640  MEMB      269             0.0000000000
     32149       269  POPC      C11            -1.0879924492       56.8602163556      -19.3938369302  MEMB      269             0.0000000000
     32150       269  POPC      H11A           -0.3452892764       56.2697671255      -18.8158380169  MEMB      269             0.0000000000
     32151       269  POPC      H11B           -1.8838627620       56.1659909506      -19.7387465851  MEMB      269             0.0000000000
     32152       269  POPC      P              -2.8271983361       57.5646036858      -17.5497113665  MEMB      269             0.0000000000
     32153       269  POPC      O13            -3.7738590115       56.5632437939      -18.1093987828  MEMB      269             0.0000000000
     32154       269  POPC      O14            -3.3655603644       58.9120344526      -17.2794776729  MEMB      269             0.0000000000
     32155       269  POPC      O12            -1.6872052691       57.8121769612      -18.5647283835  MEMB      269             0.0000000000
     32156       269  POPC      O11            -2.1437220974       56.9872935830      -16.2269497765  MEMB      269             0.0000000000
     32157       269  POPC      C1             -2.1147703233       55.5863353094      -16.1423211467  MEMB      269             0.0000000000
     32158       269  POPC      HA             -1.8582890997       54.9933899357      -17.0461762818  MEMB      269             0.0000000000
     32159       269  POPC      HB             -3.0982635651       55.2340182184      -15.7642542059  MEMB      269             0.0000000000
     32160       269  POPC      C2             -1.1042719260       55.1491663412      -15.0460218233  MEMB      269             0.0000000000
     32161       269  POPC      HS             -1.2991491103       54.0988097538      -14.7409072017  MEMB      269             0.0000000000
     32162       269  POPC      O21            -1.2514721585       55.9514182913      -13.8683556067  MEMB      269             0.0000000000
     32163       269  POPC      C21            -2.2493754989       55.4661148066      -13.0888101940  MEMB      269             0.0000000000
     32164       269  POPC      O22            -2.8137470164       54.4163681265      -13.3452617690  MEMB      269             0.0000000000
     32165       269  POPC      C22            -2.6688595255       56.3819218384      -11.9223786663  MEMB      269             0.0000000000
     32166       269  POPC      H2R            -3.7413460265       56.6580194265      -12.0110580335  MEMB      269             0.0000000000
     32167       269  POPC      H2S            -2.0799143626       57.3187221569      -12.0217262539  MEMB      269             0.0000000000
     32168       269  POPC      C3              0.3605455954       55.3811261839      -15.4697194818  MEMB      269             0.0000000000
     32169       269  POPC      HX              0.5442473703       54.7797055698      -16.3856167395  MEMB      269             0.0000000000
     32170       269  POPC      HY              1.0346551424       54.9541726478      -14.6966681501  MEMB      269             0.0000000000
     32171       269  POPC      O31             0.5129346165       56.8349732605      -15.5616726576  MEMB      269             0.0000000000
     32172       269  POPC      C31             1.4621522668       57.4530289007      -14.9293114499  MEMB      269             0.0000000000
     32173       269  POPC      O32             2.4855842469       56.8558795264      -14.4874306433  MEMB      269             0.0000000000
     32174       269  POPC      C32             1.1674892712       58.9531127966      -14.8172782068  MEMB      269             0.0000000000
     32175       269  POPC      H2X             0.1588321564       59.2458789886      -15.1795208346  MEMB      269             0.0000000000
     32176       269  POPC      H2Y             1.8238831462       59.4458773661      -15.5660445170  MEMB      269             0.0000000000
     32177       269  POPC      C23            -2.5211268799       55.8097956415      -10.5227685570  MEMB      269             0.0000000000
     32178       269  POPC      H3R            -1.4446717001       55.6225680072      -10.3214950814  MEMB      269             0.0000000000
     32179       269  POPC      H3S            -3.1413423780       54.9337378418      -10.2361048900  MEMB      269             0.0000000000
     32180       269  POPC      C24            -3.0194507870       56.8547454710       -9.5373603133  MEMB      269             0.0000000000
     32181       269  POPC      H4R            -4.0666179583       57.0961748764       -9.8192721403  MEMB      269             0.0000000000
     32182       269  POPC      H4S            -2.4578827636       57.8117433437       -9.5931939078  MEMB      269             0.0000000000
     32183       269  POPC      C25            -2.9940479240       56.4095592808       -8.1094600018  MEMB      269             0.0000000000
     32184       269  POPC      H5R            -1.9972456904       56.3440712949       -7.6232318671  MEMB      269             0.0000000000
     32185       269  POPC      H5S            -3.3336403927       55.3727200360       -7.8997879121  MEMB      269             0.0000000000
     32186       269  POPC      C26            -3.9460312245       57.3101780865       -7.3215748754  MEMB      269             0.0000000000
     32187       269  POPC      H6R            -4.9764380384       57.0948681463       -7.6768559293  MEMB      269             0.0000000000
     32188       269  POPC      H6S            -3.6119278315       58.3181441566       -7.6482247097  MEMB      269             0.0000000000
     32189       269  POPC      C27            -3.8575517877       57.2033044617       -5.7328687444  MEMB      269             0.0000000000
     32190       269  POPC      H7R            -4.2307336764       58.1583672245       -5.3051877089  MEMB      269             0.0000000000
     32191       269  POPC      H7S            -2.8157425263       56.9427928594       -5.4481086913  MEMB      269             0.0000000000
     32192       269  POPC      C28            -4.7762963793       56.0852923316       -5.2084357211  MEMB      269             0.0000000000
     32193       269  POPC      H8R            -4.6546411881       55.0937150044       -5.6945377566  MEMB      269             0.0000000000
     32194       269  POPC      H8S            -5.7805711245       56.4890764264       -5.4588580560  MEMB      269             0.0000000000
     32195       269  POPC      C29            -4.8442250825       55.9518932511       -3.7169667032  MEMB      269             0.0000000000
     32196       269  POPC      H91            -5.4408945414       56.7329573325       -3.2230793232  MEMB      269             0.0000000000
     32197       269  POPC      C210           -4.2844926036       55.0578390772       -2.9588088192  MEMB      269             0.0000000000
     32198       269  POPC      H101           -4.2354280067       55.2752989147       -1.8816343295  MEMB      269             0.0000000000
     32199       269  POPC      C211           -3.4603850427       53.8719027809       -3.5110838207  MEMB      269             0.0000000000
     32200       269  POPC      H11R           -3.0851158981       54.1085958524       -4.5296469743  MEMB      269             0.0000000000
     32201       269  POPC      H11S           -4.0542680280       52.9337261225       -3.5491500227  MEMB      269             0.0000000000
     32202       269  POPC      C212           -2.3557436360       53.4421729761       -2.5770413610  MEMB      269             0.0000000000
     32203       269  POPC      H12R           -2.0066218549       52.4787529872       -3.0062927033  MEMB      269             0.0000000000
     32204       269  POPC      H12S           -2.8705570623       53.1969965415       -1.6235332523  MEMB      269             0.0000000000
     32205       269  POPC      C213           -1.2149204580       54.3986892176       -2.3013106120  MEMB      269             0.0000000000
     32206       269  POPC      H13R           -0.4464377768       53.9591286205       -1.6300873442  MEMB      269             0.0000000000
     32207       269  POPC      H13S           -1.6201699632       55.2622552345       -1.7317952507  MEMB      269             0.0000000000
     32208       269  POPC      C214           -0.5655366952       54.8732146192       -3.6342149646  MEMB      269             0.0000000000
     32209       269  POPC      H14R            0.3464937292       55.4580268438       -3.3882140399  MEMB      269             0.0000000000
     32210       269  POPC      H14S           -1.2310579125       55.5301095279       -4.2341239148  MEMB      269             0.0000000000
     32211       269  POPC      C215            0.0299995952       53.7391959928       -4.5097785956  MEMB      269             0.0000000000
     32212       269  POPC      H15R            0.5075639071       54.2507192767       -5.3726792961  MEMB      269             0.0000000000
     32213       269  POPC      H15S           -0.6265032519       52.9611628137       -4.9547386394  MEMB      269             0.0000000000
     32214       269  POPC      C216            1.0594038364       52.8271296418       -3.8024754170  MEMB      269             0.0000000000
     32215       269  POPC      H16R            1.6481960223       52.1696066371       -4.4772406990  MEMB      269             0.0000000000
     32216       269  POPC      H16S            0.4107449686       52.1977113580       -3.1564138816  MEMB      269             0.0000000000
     32217       269  POPC      C217            2.1444630438       53.5810126457       -2.9424335251  MEMB      269             0.0000000000
     32218       269  POPC      H17R            1.5354057187       54.1364412517       -2.1975383653  MEMB      269             0.0000000000
     32219       269  POPC      H17S            2.6615499528       54.3025986260       -3.6104571971  MEMB      269             0.0000000000
     32220       269  POPC      C218            3.0845412321       52.5926760059       -2.2688830687  MEMB      269             0.0000000000
     32221       269  POPC      H18R            3.8669551429       52.3208563171       -3.0093298380  MEMB      269             0.0000000000
     32222       269  POPC      H18S            2.4563701214       51.7477033391       -1.9142781452  MEMB      269             0.0000000000
     32223       269  POPC      H18T            3.6411530436       53.0867440709       -1.4440181113  MEMB      269             0.0000000000
     32224       269  POPC      C33             1.5207948385       59.5118254015      -13.4487467780  MEMB      269             0.0000000000
     32225       269  POPC      H3X             1.2088120203       60.5753557623      -13.5254991316  MEMB      269             0.0000000000
     32226       269  POPC      H3Y             2.6172864393       59.5895028996      -13.2875219260  MEMB      269             0.0000000000
     32227       269  POPC      C34             0.8507677324       58.8237585104      -12.2994207025  MEMB      269             0.0000000000
     32228       269  POPC      H4X             0.9823967451       57.7210557657      -12.3316962607  MEMB      269             0.0000000000
     32229       269  POPC      H4Y            -0.2397522493       58.8481206769      -12.5103559704  MEMB      269             0.0000000000
     32230       269  POPC      C35             1.0566436878       59.5531621149      -10.9819168888  MEMB      269             0.0000000000
     32231       269  POPC      H5X             0.6683563170       60.5802437440      -11.1512016924  MEMB      269             0.0000000000
     32232       269  POPC      H5Y             2.1402077843       59.4491150251      -10.7596922103  MEMB      269             0.0000000000
     32233       269  POPC      C36             0.2367542377       59.0040430900       -9.7681397259  MEMB      269             0.0000000000
     32234       269  POPC      H6X             0.5614130393       57.9415515260       -9.7627030183  MEMB      269             0.0000000000
     32235       269  POPC      H6Y            -0.7767889241       59.3523463161      -10.0609468014  MEMB      269             0.0000000000
     32236       269  POPC      C37             0.4691095510       59.6278378982       -8.4476792117  MEMB      269             0.0000000000
     32237       269  POPC      H7X             0.1332870838       60.6793813522       -8.5733778714  MEMB      269             0.0000000000
     32238       269  POPC      H7Y             1.5284642876       59.5970803381       -8.1142985364  MEMB      269             0.0000000000
     32239       269  POPC      C38            -0.3217664711       59.0032197936       -7.2703057866  MEMB      269             0.0000000000
     32240       269  POPC      H8X            -0.3935940536       57.8945952013       -7.2596927086  MEMB      269             0.0000000000
     32241       269  POPC      H8Y            -1.3639606692       59.3793248931       -7.3521440725  MEMB      269             0.0000000000
     32242       269  POPC      C39             0.0913619259       59.4020448076       -5.8043905702  MEMB      269             0.0000000000
     32243       269  POPC      H9X             0.1978157067       60.4955716979       -5.9692757705  MEMB      269             0.0000000000
     32244       269  POPC      H9Y             1.0475235638       58.9353156280       -5.4846415429  MEMB      269             0.0000000000
     32245       269  POPC      C310           -1.1019578356       59.1429786560       -4.8447131104  MEMB      269             0.0000000000
     32246       269  POPC      H10X           -1.2708798140       58.0494159749       -4.9442473884  MEMB      269             0.0000000000
     32247       269  POPC      H10Y           -1.9852781060       59.6788887231       -5.2532057047  MEMB      269             0.0000000000
     32248       269  POPC      C311           -0.9365155151       59.4843953203       -3.3629776846  MEMB      269             0.0000000000
     32249       269  POPC      H11X           -1.9203311074       59.3844765858       -2.8565739148  MEMB      269             0.0000000000
     32250       269  POPC      H11Y           -0.6593266844       60.5589345039       -3.4163890915  MEMB      269             0.0000000000
     32251       269  POPC      C312            0.1516275493       58.6534217668       -2.7591892592  MEMB      269             0.0000000000
     32252       269  POPC      H12X            1.0697086960       59.0088490335       -3.2740866899  MEMB      269             0.0000000000
     32253       269  POPC      H12Y            0.1087890988       57.5800152288       -3.0425341694  MEMB      269             0.0000000000
     32254       269  POPC      C313            0.2823549786       58.9021627627       -1.2748651485  MEMB      269             0.0000000000
     32255       269  POPC      H13X            0.4195673453       59.9995998292       -1.1693867511  MEMB      269             0.0000000000
     32256       269  POPC      H13Y            1.2301250543       58.4714511150       -0.8868707522  MEMB      269             0.0000000000
     32257       269  POPC      C314           -0.7925876152       58.4609465208       -0.3474046135  MEMB      269             0.0000000000
     32258       269  POPC      H14X           -1.0631601339       57.3924874953       -0.4870717207  MEMB      269             0.0000000000
     32259       269  POPC      H14Y           -1.7223244520       59.0479917993       -0.5064274673  MEMB      269             0.0000000000
     32260       269  POPC      C315           -0.4097211972       58.2817808608        1.1500324712  MEMB      269             0.0000000000
     32261       269  POPC      H15X           -0.0932904007       59.3186125484        1.3932856131  MEMB      269             0.0000000000
     32262       269  POPC      H15Y            0.5519637938       57.7262017643        1.1214840673  MEMB      269             0.0000000000
     32263       269  POPC      C316           -1.4111214972       57.5689552498        2.0266943236  MEMB      269             0.0000000000
     32264       269  POPC      H16X           -2.4148292285       58.0400445106        2.0971693128  MEMB      269             0.0000000000
     32265       269  POPC      H16Y           -1.1589688739       57.2363764850        3.0563209703  MEMB      269             0.0000000000
     32266       269  POPC      H16Z           -1.6850711300       56.6192579920        1.5193995490  MEMB      269             0.0000000000
     32267       270  POPC      N             -45.1738247274      -27.7756408412      -18.7858517808  MEMB      270             0.0000000000
     32268       270  POPC      C12           -45.6055283501      -28.9187466101      -19.7110782500  MEMB      270             0.0000000000
     32269       270  POPC      H12A          -45.3945744140      -29.8615536808      -19.2283637218  MEMB      270             0.0000000000
     32270       270  POPC      H12B          -45.0020301311      -28.7650103905      -20.5934358817  MEMB      270             0.0000000000
     32271       270  POPC      C13           -46.0313094921      -27.7246425181      -17.5232444360  MEMB      270             0.0000000000
     32272       270  POPC      H13A          -45.7152386295      -26.9427344326      -16.8486194181  MEMB      270             0.0000000000
     32273       270  POPC      H13B          -47.0437514158      -27.6152394239      -17.8829556722  MEMB      270             0.0000000000
     32274       270  POPC      H13C          -46.0141777835      -28.7049192335      -17.0702940684  MEMB      270             0.0000000000
     32275       270  POPC      C14           -43.7162441814      -28.0005317324      -18.4792136226  MEMB      270             0.0000000000
     32276       270  POPC      H14A          -43.5527331229      -29.0430527383      -18.2494001955  MEMB      270             0.0000000000
     32277       270  POPC      H14B          -43.2036498497      -27.7789481263      -19.4036311456  MEMB      270             0.0000000000
     32278       270  POPC      H14C          -43.4595410616      -27.4425558225      -17.5908632476  MEMB      270             0.0000000000
     32279       270  POPC      C15           -45.1529730517      -26.5073198285      -19.5831593538  MEMB      270             0.0000000000
     32280       270  POPC      H15A          -46.0379890275      -26.3548701655      -20.1830807223  MEMB      270             0.0000000000
     32281       270  POPC      H15B          -44.2554948212      -26.4420677068      -20.1803823735  MEMB      270             0.0000000000
     32282       270  POPC      H15C          -44.9717511255      -25.6242249677      -18.9884305130  MEMB      270             0.0000000000
     32283       270  POPC      C11           -47.0229824575      -28.9404504218      -20.1708314642  MEMB      270             0.0000000000
     32284       270  POPC      H11A          -47.0837005243      -29.5979737530      -21.0643063458  MEMB      270             0.0000000000
     32285       270  POPC      H11B          -47.3062461299      -27.8998268514      -20.4376369872  MEMB      270             0.0000000000
     32286       270  POPC      P             -48.2415415943      -30.9238658654      -19.0143165612  MEMB      270             0.0000000000
     32287       270  POPC      O13           -47.4823344374      -31.6947519661      -20.0281720494  MEMB      270             0.0000000000
     32288       270  POPC      O14           -49.6762626524      -31.1269583286      -19.0583954104  MEMB      270             0.0000000000
     32289       270  POPC      O12           -47.8419592893      -29.3859642927      -19.1121728835  MEMB      270             0.0000000000
     32290       270  POPC      O11           -47.8491905729      -31.2696926518      -17.5335641935  MEMB      270             0.0000000000
     32291       270  POPC      C1            -48.4508676621      -30.4779107514      -16.4908032837  MEMB      270             0.0000000000
     32292       270  POPC      HA            -49.5496825220      -30.4244172424      -16.6459327518  MEMB      270             0.0000000000
     32293       270  POPC      HB            -47.9775495850      -29.4761195197      -16.5726899961  MEMB      270             0.0000000000
     32294       270  POPC      C2            -48.2490490418      -31.1907409880      -15.1159203010  MEMB      270             0.0000000000
     32295       270  POPC      HS            -48.8379671047      -30.5875182649      -14.3923054289  MEMB      270             0.0000000000
     32296       270  POPC      O21           -46.8428034669      -31.2537045064      -14.7810481394  MEMB      270             0.0000000000
     32297       270  POPC      C21           -46.2471356857      -30.1370886779      -14.4940759822  MEMB      270             0.0000000000
     32298       270  POPC      O22           -46.7402300153      -29.0048091829      -14.2952108761  MEMB      270             0.0000000000
     32299       270  POPC      C22           -44.7375479711      -30.4054757727      -14.5629495729  MEMB      270             0.0000000000
     32300       270  POPC      H2R           -44.1781878126      -29.4654453331      -14.7573201752  MEMB      270             0.0000000000
     32301       270  POPC      H2S           -44.5139011825      -31.1494290450      -15.3572019712  MEMB      270             0.0000000000
     32302       270  POPC      C3            -48.7444355384      -32.7190690110      -15.1102890275  MEMB      270             0.0000000000
     32303       270  POPC      HX            -48.3905582025      -33.1931969351      -16.0506583735  MEMB      270             0.0000000000
     32304       270  POPC      HY            -49.8318543554      -32.9466743877      -15.1042005548  MEMB      270             0.0000000000
     32305       270  POPC      O31           -48.0967993501      -33.4570602391      -14.1331286935  MEMB      270             0.0000000000
     32306       270  POPC      C31           -48.5841858865      -33.6712426604      -12.8924723284  MEMB      270             0.0000000000
     32307       270  POPC      O32           -49.7305745155      -33.3854603284      -12.4741977680  MEMB      270             0.0000000000
     32308       270  POPC      C32           -47.5273168297      -34.4367963691      -12.0549433514  MEMB      270             0.0000000000
     32309       270  POPC      H2X           -46.5589449741      -33.9389500193      -12.2756823676  MEMB      270             0.0000000000
     32310       270  POPC      H2Y           -47.4294612041      -35.4452794137      -12.5106924630  MEMB      270             0.0000000000
     32311       270  POPC      C23           -44.3494965268      -30.8863279025      -13.1650685658  MEMB      270             0.0000000000
     32312       270  POPC      H3R           -44.7255439982      -31.9226601234      -13.0275013785  MEMB      270             0.0000000000
     32313       270  POPC      H3S           -44.7938066884      -30.1546719110      -12.4568391270  MEMB      270             0.0000000000
     32314       270  POPC      C24           -42.8611451121      -30.9562452641      -12.9934000640  MEMB      270             0.0000000000
     32315       270  POPC      H4R           -42.4576197283      -29.9242238967      -12.9132736809  MEMB      270             0.0000000000
     32316       270  POPC      H4S           -42.3729696877      -31.4813314695      -13.8420994849  MEMB      270             0.0000000000
     32317       270  POPC      C25           -42.3734417748      -31.7226869122      -11.7552557272  MEMB      270             0.0000000000
     32318       270  POPC      H5R           -41.3576760763      -32.1673352098      -11.8247469248  MEMB      270             0.0000000000
     32319       270  POPC      H5S           -42.9682810909      -32.6527860900      -11.6311472299  MEMB      270             0.0000000000
     32320       270  POPC      C26           -42.4363319609      -30.9299769639      -10.4349130428  MEMB      270             0.0000000000
     32321       270  POPC      H6R           -42.0286699597      -31.5840949614       -9.6347483646  MEMB      270             0.0000000000
     32322       270  POPC      H6S           -43.4648098467      -30.8133475759      -10.0312393678  MEMB      270             0.0000000000
     32323       270  POPC      C27           -41.7268272833      -29.6249607536      -10.4775561449  MEMB      270             0.0000000000
     32324       270  POPC      H7R           -42.3055785062      -28.8899219869      -11.0767941964  MEMB      270             0.0000000000
     32325       270  POPC      H7S           -40.6946731266      -29.7585621095      -10.8663103895  MEMB      270             0.0000000000
     32326       270  POPC      C28           -41.6849591881      -28.9745329951       -9.0289870068  MEMB      270             0.0000000000
     32327       270  POPC      H8R           -40.9654372203      -28.1314477902       -8.9527181523  MEMB      270             0.0000000000
     32328       270  POPC      H8S           -41.4189385585      -29.8611739828       -8.4146396569  MEMB      270             0.0000000000
     32329       270  POPC      C29           -43.0698823727      -28.4960515108       -8.6093065622  MEMB      270             0.0000000000
     32330       270  POPC      H91           -43.7043784142      -28.3088995108       -9.4881632999  MEMB      270             0.0000000000
     32331       270  POPC      C210          -43.4715508393      -28.3297634901       -7.3730164715  MEMB      270             0.0000000000
     32332       270  POPC      H101          -44.5084004096      -28.0558046875       -7.1282935606  MEMB      270             0.0000000000
     32333       270  POPC      C211          -42.6151537713      -28.5729967248       -6.1232968417  MEMB      270             0.0000000000
     32334       270  POPC      H11R          -42.8233465731      -27.8291257241       -5.3247780654  MEMB      270             0.0000000000
     32335       270  POPC      H11S          -41.5458580856      -28.4498546688       -6.3985500286  MEMB      270             0.0000000000
     32336       270  POPC      C212          -42.7354341372      -29.9326366540       -5.5060768917  MEMB      270             0.0000000000
     32337       270  POPC      H12R          -41.9326741645      -29.9864546413       -4.7399171399  MEMB      270             0.0000000000
     32338       270  POPC      H12S          -42.3997317401      -30.6468968642       -6.2880340000  MEMB      270             0.0000000000
     32339       270  POPC      C213          -44.1138800991      -30.3577098425       -4.9345506045  MEMB      270             0.0000000000
     32340       270  POPC      H13R          -44.7453718728      -30.7691644345       -5.7507883400  MEMB      270             0.0000000000
     32341       270  POPC      H13S          -44.6822034502      -29.4877380687       -4.5415125338  MEMB      270             0.0000000000
     32342       270  POPC      C214          -43.9922275939      -31.5150013665       -4.0314879594  MEMB      270             0.0000000000
     32343       270  POPC      H14R          -43.4036445845      -31.3801926415       -3.0989017226  MEMB      270             0.0000000000
     32344       270  POPC      H14S          -43.6116982836      -32.4549666138       -4.4853426734  MEMB      270             0.0000000000
     32345       270  POPC      C215          -45.3476976134      -32.0266612743       -3.4601855201  MEMB      270             0.0000000000
     32346       270  POPC      H15R          -46.0765827264      -32.2399870703       -4.2710733279  MEMB      270             0.0000000000
     32347       270  POPC      H15S          -45.9331620341      -31.2672995566       -2.8990049416  MEMB      270             0.0000000000
     32348       270  POPC      C216          -45.2661810234      -33.3770667294       -2.6470872254  MEMB      270             0.0000000000
     32349       270  POPC      H16R          -44.4225236010      -33.4089597759       -1.9249057699  MEMB      270             0.0000000000
     32350       270  POPC      H16S          -44.9893169722      -34.1433486497       -3.4023882065  MEMB      270             0.0000000000
     32351       270  POPC      C217          -46.5919788143      -33.7360982570       -2.0874920193  MEMB      270             0.0000000000
     32352       270  POPC      H17R          -47.3893421493      -33.6438900326       -2.8556263455  MEMB      270             0.0000000000
     32353       270  POPC      H17S          -46.8052334091      -33.1475418489       -1.1696444061  MEMB      270             0.0000000000
     32354       270  POPC      C218          -46.6965145004      -35.1979446375       -1.5144356707  MEMB      270             0.0000000000
     32355       270  POPC      H18R          -47.7528416976      -35.4838949583       -1.7060760412  MEMB      270             0.0000000000
     32356       270  POPC      H18S          -46.4385745893      -35.3406644441       -0.4432592137  MEMB      270             0.0000000000
     32357       270  POPC      H18T          -46.1404623068      -35.8768504226       -2.1957677979  MEMB      270             0.0000000000
     32358       270  POPC      C33           -47.8962562054      -34.4759217140      -10.6261925244  MEMB      270             0.0000000000
     32359       270  POPC      H3X           -47.1696659272      -35.1044844391      -10.0682531495  MEMB      270             0.0000000000
     32360       270  POPC      H3Y           -48.9393641881      -34.7886817173      -10.4061291637  MEMB      270             0.0000000000
     32361       270  POPC      C34           -47.7104957535      -33.1375935500       -9.9301972561  MEMB      270             0.0000000000
     32362       270  POPC      H4X           -48.3263069023      -32.3485850408      -10.4124451184  MEMB      270             0.0000000000
     32363       270  POPC      H4Y           -46.6714737620      -32.7520144097      -10.0081921342  MEMB      270             0.0000000000
     32364       270  POPC      C35           -48.1268827206      -33.1443211071       -8.4324740735  MEMB      270             0.0000000000
     32365       270  POPC      H5X           -47.2514762459      -33.5033276977       -7.8501512961  MEMB      270             0.0000000000
     32366       270  POPC      H5Y           -48.8780089879      -33.9511828970       -8.2942556668  MEMB      270             0.0000000000
     32367       270  POPC      C36           -48.7231484187      -31.8384436703       -7.9121682169  MEMB      270             0.0000000000
     32368       270  POPC      H6X           -49.0464531986      -31.9389391667       -6.8540120308  MEMB      270             0.0000000000
     32369       270  POPC      H6Y           -49.6307862422      -31.6221965691       -8.5152863302  MEMB      270             0.0000000000
     32370       270  POPC      C37           -47.8549153885      -30.6135908214       -7.9932715065  MEMB      270             0.0000000000
     32371       270  POPC      H7X           -47.6111715979      -30.4032756220       -9.0566046726  MEMB      270             0.0000000000
     32372       270  POPC      H7Y           -46.9296279644      -30.9854647082       -7.5035021390  MEMB      270             0.0000000000
     32373       270  POPC      C38           -48.5316309761      -29.4243764099       -7.3564600075  MEMB      270             0.0000000000
     32374       270  POPC      H8X           -49.1078888866      -29.8429479006       -6.5037899326  MEMB      270             0.0000000000
     32375       270  POPC      H8Y           -49.2020522939      -28.9911221650       -8.1292129920  MEMB      270             0.0000000000
     32376       270  POPC      C39           -47.5620867803      -28.2174899026       -6.9646515460  MEMB      270             0.0000000000
     32377       270  POPC      H9X           -47.0615080089      -27.9476600305       -7.9190802840  MEMB      270             0.0000000000
     32378       270  POPC      H9Y           -46.7283648550      -28.6764636437       -6.3914392116  MEMB      270             0.0000000000
     32379       270  POPC      C310          -48.2252911190      -27.0569644672       -6.2374187891  MEMB      270             0.0000000000
     32380       270  POPC      H10X          -49.0048419901      -26.6010333747       -6.8845261252  MEMB      270             0.0000000000
     32381       270  POPC      H10Y          -47.4600862470      -26.2675896708       -6.0772007742  MEMB      270             0.0000000000
     32382       270  POPC      C311          -48.9042315245      -27.3299545733       -4.8688804752  MEMB      270             0.0000000000
     32383       270  POPC      H11X          -49.6903816020      -28.1143589547       -4.9004855697  MEMB      270             0.0000000000
     32384       270  POPC      H11Y          -49.3730945480      -26.3516462673       -4.6292951827  MEMB      270             0.0000000000
     32385       270  POPC      C312          -47.9582574594      -27.5372974513       -3.6983582954  MEMB      270             0.0000000000
     32386       270  POPC      H12X          -48.3520043308      -27.1383704015       -2.7391182483  MEMB      270             0.0000000000
     32387       270  POPC      H12Y          -47.0522606306      -26.9110670630       -3.8443933105  MEMB      270             0.0000000000
     32388       270  POPC      C313          -47.5785966313      -28.9408634890       -3.5206907519  MEMB      270             0.0000000000
     32389       270  POPC      H13X          -46.5335006362      -28.8263080030       -3.1615630521  MEMB      270             0.0000000000
     32390       270  POPC      H13Y          -47.3909393249      -29.2935394311       -4.5573806292  MEMB      270             0.0000000000
     32391       270  POPC      C314          -48.4370189369      -29.7853295841       -2.5983908656  MEMB      270             0.0000000000
     32392       270  POPC      H14X          -47.8047751586      -30.6461962597       -2.2926168286  MEMB      270             0.0000000000
     32393       270  POPC      H14Y          -49.3039897981      -30.1829967216       -3.1680780715  MEMB      270             0.0000000000
     32394       270  POPC      C315          -48.7671198574      -29.0937941993       -1.2287614287  MEMB      270             0.0000000000
     32395       270  POPC      H15X          -49.1121555752      -29.8767463960       -0.5200599610  MEMB      270             0.0000000000
     32396       270  POPC      H15Y          -49.3517412014      -28.1529664830       -1.3146793244  MEMB      270             0.0000000000
     32397       270  POPC      C316          -47.4519242685      -28.6256710380       -0.6055854220  MEMB      270             0.0000000000
     32398       270  POPC      H16X          -47.6185046940      -28.2775605265        0.4362354435  MEMB      270             0.0000000000
     32399       270  POPC      H16Y          -46.9536978774      -27.7483926205       -1.0708530177  MEMB      270             0.0000000000
     32400       270  POPC      H16Z          -46.7307956743      -29.4631266305       -0.7194379945  MEMB      270             0.0000000000
     32401       271  POPC      N              41.4034738800      -41.6999305915      -20.3538731089  MEMB      271             0.0000000000
     32402       271  POPC      C12            41.0444643821      -41.8276614791      -18.9115478777  MEMB      271             0.0000000000
     32403       271  POPC      H12A           41.6566207449      -42.7031492169      -18.7528474481  MEMB      271             0.0000000000
     32404       271  POPC      H12B           39.9744608294      -41.9736290242      -18.9251869581  MEMB      271             0.0000000000
     32405       271  POPC      C13            40.4919300743      -40.7169578028      -21.0439409859  MEMB      271             0.0000000000
     32406       271  POPC      H13A           40.3538815903      -39.8665191927      -20.3927138825  MEMB      271             0.0000000000
     32407       271  POPC      H13B           40.9091452012      -40.3584679303      -21.9733582599  MEMB      271             0.0000000000
     32408       271  POPC      H13C           39.5550644759      -41.2146018474      -21.2465078888  MEMB      271             0.0000000000
     32409       271  POPC      C14            42.8240101192      -41.2296795991      -20.4384287806  MEMB      271             0.0000000000
     32410       271  POPC      H14A           42.9916332939      -40.2493523020      -20.0174053809  MEMB      271             0.0000000000
     32411       271  POPC      H14B           43.4762821518      -41.8677497289      -19.8606678592  MEMB      271             0.0000000000
     32412       271  POPC      H14C           43.1505018556      -41.0428510952      -21.4508014259  MEMB      271             0.0000000000
     32413       271  POPC      C15            41.3195258777      -43.0084445846      -21.0829705767  MEMB      271             0.0000000000
     32414       271  POPC      H15A           41.9065182648      -42.8618795630      -21.9775981992  MEMB      271             0.0000000000
     32415       271  POPC      H15B           40.2925814231      -43.2607137117      -21.3023910514  MEMB      271             0.0000000000
     32416       271  POPC      H15C           41.7337073216      -43.8387362566      -20.5302776110  MEMB      271             0.0000000000
     32417       271  POPC      C11            41.4330350845      -40.6262330261      -17.9322402890  MEMB      271             0.0000000000
     32418       271  POPC      H11A           42.5157640519      -40.4797865674      -17.7308147096  MEMB      271             0.0000000000
     32419       271  POPC      H11B           41.0328556329      -40.7796671821      -16.9072353108  MEMB      271             0.0000000000
     32420       271  POPC      P              40.1060550784      -38.3141721410      -17.8494794094  MEMB      271             0.0000000000
     32421       271  POPC      O13            39.0288892382      -38.9904271006      -17.0760184912  MEMB      271             0.0000000000
     32422       271  POPC      O14            39.7282874255      -37.3679975019      -18.9808303672  MEMB      271             0.0000000000
     32423       271  POPC      O12            40.9469981261      -39.3842888736      -18.4291314341  MEMB      271             0.0000000000
     32424       271  POPC      O11            41.1041147495      -37.5636007633      -16.9015386483  MEMB      271             0.0000000000
     32425       271  POPC      C1             41.8397309747      -36.4905461683      -17.4071463480  MEMB      271             0.0000000000
     32426       271  POPC      HA             41.2119300091      -35.6235316369      -17.7045903707  MEMB      271             0.0000000000
     32427       271  POPC      HB             42.4970524278      -36.8089435206      -18.2443275820  MEMB      271             0.0000000000
     32428       271  POPC      C2             42.9205938237      -35.9633452201      -16.3787317611  MEMB      271             0.0000000000
     32429       271  POPC      HS             43.6404261400      -35.3070450080      -16.9129906547  MEMB      271             0.0000000000
     32430       271  POPC      O21            43.4653400313      -37.0966410610      -15.6938140767  MEMB      271             0.0000000000
     32431       271  POPC      C21            44.7509859617      -37.2166124866      -15.8781612397  MEMB      271             0.0000000000
     32432       271  POPC      O22            45.5183982427      -36.3354392761      -16.3239382468  MEMB      271             0.0000000000
     32433       271  POPC      C22            45.1567391018      -38.6635809157      -15.4673492071  MEMB      271             0.0000000000
     32434       271  POPC      H2R            44.7202754946      -39.2646167507      -16.2935308620  MEMB      271             0.0000000000
     32435       271  POPC      H2S            44.6634113829      -39.0401719946      -14.5458679303  MEMB      271             0.0000000000
     32436       271  POPC      C3             42.2640294844      -35.0446685893      -15.3871708693  MEMB      271             0.0000000000
     32437       271  POPC      HX             41.9232786142      -34.1926015297      -16.0134229201  MEMB      271             0.0000000000
     32438       271  POPC      HY             43.0503382989      -34.7005361826      -14.6817548256  MEMB      271             0.0000000000
     32439       271  POPC      O31            41.1350213258      -35.6979624014      -14.8131099771  MEMB      271             0.0000000000
     32440       271  POPC      C31            41.2182035823      -36.1053086943      -13.5272567806  MEMB      271             0.0000000000
     32441       271  POPC      O32            42.2066856818      -36.1125550011      -12.7957985876  MEMB      271             0.0000000000
     32442       271  POPC      C32            39.9087852045      -36.6046295316      -12.9610308098  MEMB      271             0.0000000000
     32443       271  POPC      H2X            39.0304945865      -36.2172156522      -13.5203494009  MEMB      271             0.0000000000
     32444       271  POPC      H2Y            39.8081556471      -36.2937015341      -11.8991839638  MEMB      271             0.0000000000
     32445       271  POPC      C23            46.6926884830      -38.9400935465      -15.1842613919  MEMB      271             0.0000000000
     32446       271  POPC      H3R            47.3637259369      -38.3570987912      -15.8507047988  MEMB      271             0.0000000000
     32447       271  POPC      H3S            46.8474048856      -40.0258174610      -15.3619894795  MEMB      271             0.0000000000
     32448       271  POPC      C24            47.0927922291      -38.6609998866      -13.6769836561  MEMB      271             0.0000000000
     32449       271  POPC      H4R            47.0186249520      -37.5801028156      -13.4310535615  MEMB      271             0.0000000000
     32450       271  POPC      H4S            48.1989007135      -38.7407589743      -13.6100256967  MEMB      271             0.0000000000
     32451       271  POPC      C25            46.4731961243      -39.5583904997      -12.5964877468  MEMB      271             0.0000000000
     32452       271  POPC      H5R            46.5361376366      -40.6580864596      -12.7414982011  MEMB      271             0.0000000000
     32453       271  POPC      H5S            45.3862931824      -39.3745084822      -12.4581041378  MEMB      271             0.0000000000
     32454       271  POPC      C26            47.1371741531      -39.3718168008      -11.2053372505  MEMB      271             0.0000000000
     32455       271  POPC      H6R            46.9778015480      -38.3088159767      -10.9243559982  MEMB      271             0.0000000000
     32456       271  POPC      H6S            48.2251898048      -39.5495474472      -11.3430119251  MEMB      271             0.0000000000
     32457       271  POPC      C27            46.6620811873      -40.4901318537      -10.2020959306  MEMB      271             0.0000000000
     32458       271  POPC      H7R            47.5250089361      -40.8106974032       -9.5800722640  MEMB      271             0.0000000000
     32459       271  POPC      H7S            46.4223595188      -41.4721686678      -10.6630281295  MEMB      271             0.0000000000
     32460       271  POPC      C28            45.4895078639      -40.1811997536       -9.2621702380  MEMB      271             0.0000000000
     32461       271  POPC      H8R            45.8181387416      -39.3384376332       -8.6171315671  MEMB      271             0.0000000000
     32462       271  POPC      H8S            45.3714736293      -41.0715994966       -8.6082761949  MEMB      271             0.0000000000
     32463       271  POPC      C29            44.0963839311      -39.8966835829       -9.8323252994  MEMB      271             0.0000000000
     32464       271  POPC      H91            43.4900213402      -40.7903724514      -10.0412371242  MEMB      271             0.0000000000
     32465       271  POPC      C210           43.5753989553      -38.6665886559       -9.9804305927  MEMB      271             0.0000000000
     32466       271  POPC      H101           42.5936456493      -38.5089340290      -10.4508617010  MEMB      271             0.0000000000
     32467       271  POPC      C211           44.2416818143      -37.3610258943       -9.5655192932  MEMB      271             0.0000000000
     32468       271  POPC      H11R           44.1343325032      -36.7365499285      -10.4781126259  MEMB      271             0.0000000000
     32469       271  POPC      H11S           45.3335870509      -37.4982878132       -9.4131265991  MEMB      271             0.0000000000
     32470       271  POPC      C212           43.6024951393      -36.5785991674       -8.4210762301  MEMB      271             0.0000000000
     32471       271  POPC      H12R           42.5013835085      -36.5541874759       -8.5669456714  MEMB      271             0.0000000000
     32472       271  POPC      H12S           44.0716856358      -35.5737923992       -8.3536625827  MEMB      271             0.0000000000
     32473       271  POPC      C213           43.8447721758      -37.1659546749       -7.0267153911  MEMB      271             0.0000000000
     32474       271  POPC      H13R           43.5036194114      -38.2224491852       -7.0686074846  MEMB      271             0.0000000000
     32475       271  POPC      H13S           43.1912420655      -36.5695142440       -6.3547934881  MEMB      271             0.0000000000
     32476       271  POPC      C214           45.3183723545      -37.2470828344       -6.4252045775  MEMB      271             0.0000000000
     32477       271  POPC      H14R           45.9705841121      -36.4331569167       -6.8079131528  MEMB      271             0.0000000000
     32478       271  POPC      H14S           45.7311723585      -38.1601527207       -6.9050170240  MEMB      271             0.0000000000
     32479       271  POPC      C215           45.1554160560      -37.5359716901       -4.9344844733  MEMB      271             0.0000000000
     32480       271  POPC      H15R           44.7422892449      -36.7254839777       -4.2967096372  MEMB      271             0.0000000000
     32481       271  POPC      H15S           46.2203715191      -37.5033251379       -4.6196434335  MEMB      271             0.0000000000
     32482       271  POPC      C216           44.5231074583      -38.8753417595       -4.5288613338  MEMB      271             0.0000000000
     32483       271  POPC      H16R           45.0545463468      -39.7542315255       -4.9524725747  MEMB      271             0.0000000000
     32484       271  POPC      H16S           43.4978862313      -38.8800373059       -4.9569043514  MEMB      271             0.0000000000
     32485       271  POPC      C217           44.3694866553      -39.0683635339       -3.0490670242  MEMB      271             0.0000000000
     32486       271  POPC      H17R           43.9076197535      -38.1779111198       -2.5714745091  MEMB      271             0.0000000000
     32487       271  POPC      H17S           45.3855619138      -39.1203326934       -2.6027357094  MEMB      271             0.0000000000
     32488       271  POPC      C218           43.5609661866      -40.3496024566       -2.6302996765  MEMB      271             0.0000000000
     32489       271  POPC      H18R           43.1949053618      -40.4086063498       -1.5829995270  MEMB      271             0.0000000000
     32490       271  POPC      H18S           44.1062041151      -41.2624280095       -2.9524583566  MEMB      271             0.0000000000
     32491       271  POPC      H18T           42.6212666385      -40.2398743467       -3.2127488135  MEMB      271             0.0000000000
     32492       271  POPC      C33            39.9005789370      -38.1104152538      -13.1154784750  MEMB      271             0.0000000000
     32493       271  POPC      H3X            40.7530027461      -38.5328442927      -12.5416770804  MEMB      271             0.0000000000
     32494       271  POPC      H3Y            40.0717371482      -38.3539189790      -14.1858669576  MEMB      271             0.0000000000
     32495       271  POPC      C34            38.5710774093      -38.7498571698      -12.6067583872  MEMB      271             0.0000000000
     32496       271  POPC      H4X            37.7629566029      -38.7842146539      -13.3683887716  MEMB      271             0.0000000000
     32497       271  POPC      H4Y            38.1092534847      -38.2094868538      -11.7529199813  MEMB      271             0.0000000000
     32498       271  POPC      C35            38.7777501939      -40.2224054379      -12.0684603441  MEMB      271             0.0000000000
     32499       271  POPC      H5X            39.7783878586      -40.3541181214      -11.6040287411  MEMB      271             0.0000000000
     32500       271  POPC      H5Y            38.9438525058      -40.8163748916      -12.9925442022  MEMB      271             0.0000000000
     32501       271  POPC      C36            37.5628717694      -40.6986828007      -11.2088869289  MEMB      271             0.0000000000
     32502       271  POPC      H6X            36.7449363702      -41.0954991543      -11.8475104172  MEMB      271             0.0000000000
     32503       271  POPC      H6Y            37.0906935145      -39.8387529684      -10.6874565911  MEMB      271             0.0000000000
     32504       271  POPC      C37            37.9010625255      -41.6905566683      -10.1626787601  MEMB      271             0.0000000000
     32505       271  POPC      H7X            38.2182265163      -42.6216435223      -10.6792108564  MEMB      271             0.0000000000
     32506       271  POPC      H7Y            37.0160868443      -41.9124690067       -9.5287269767  MEMB      271             0.0000000000
     32507       271  POPC      C38            38.9957797642      -41.3466038042       -9.1698916549  MEMB      271             0.0000000000
     32508       271  POPC      H8X            39.9300090091      -41.5211278062       -9.7452857431  MEMB      271             0.0000000000
     32509       271  POPC      H8Y            39.0440864662      -42.0628718683       -8.3219834835  MEMB      271             0.0000000000
     32510       271  POPC      C39            38.8985988317      -39.8883028754       -8.6174274883  MEMB      271             0.0000000000
     32511       271  POPC      H9X            37.8757531814      -39.4854658722       -8.4567099195  MEMB      271             0.0000000000
     32512       271  POPC      H9Y            39.4316592441      -39.2823601556       -9.3809726254  MEMB      271             0.0000000000
     32513       271  POPC      C310           39.7623239483      -39.5634401640       -7.4095564370  MEMB      271             0.0000000000
     32514       271  POPC      H10X           39.8743914106      -38.4652376377       -7.5349086019  MEMB      271             0.0000000000
     32515       271  POPC      H10Y           40.7572841444      -40.0381518343       -7.5474834250  MEMB      271             0.0000000000
     32516       271  POPC      C311           39.1253857710      -39.8325364824       -6.0036338530  MEMB      271             0.0000000000
     32517       271  POPC      H11X           38.8455726496      -40.8970333286       -5.8523977152  MEMB      271             0.0000000000
     32518       271  POPC      H11Y           38.1842736131      -39.2457857740       -6.0696053511  MEMB      271             0.0000000000
     32519       271  POPC      C312           40.0100484395      -39.1796159171       -4.9486755446  MEMB      271             0.0000000000
     32520       271  POPC      H12X           41.0999349828      -39.3427792594       -5.0895510843  MEMB      271             0.0000000000
     32521       271  POPC      H12Y           39.8201885936      -39.6509430314       -3.9606851010  MEMB      271             0.0000000000
     32522       271  POPC      C313           39.7836363156      -37.6575047119       -4.7001780259  MEMB      271             0.0000000000
     32523       271  POPC      H13X           38.7765535427      -37.4384609930       -4.2852981195  MEMB      271             0.0000000000
     32524       271  POPC      H13Y           40.0135508291      -37.1720188067       -5.6726812280  MEMB      271             0.0000000000
     32525       271  POPC      C314           40.8403794096      -37.0545349657       -3.6598621094  MEMB      271             0.0000000000
     32526       271  POPC      H14X           40.7254158331      -35.9774839146       -3.9069754834  MEMB      271             0.0000000000
     32527       271  POPC      H14Y           41.8580520653      -37.4927048722       -3.7415346066  MEMB      271             0.0000000000
     32528       271  POPC      C315           40.4428614684      -37.3145416886       -2.2093746159  MEMB      271             0.0000000000
     32529       271  POPC      H15X           40.6583156954      -38.3787507685       -1.9740892843  MEMB      271             0.0000000000
     32530       271  POPC      H15Y           39.3389545029      -37.2320286465       -2.1150212861  MEMB      271             0.0000000000
     32531       271  POPC      C316           41.2283670331      -36.5098321530       -1.1771787832  MEMB      271             0.0000000000
     32532       271  POPC      H16X           40.7801703518      -35.5263072148       -0.9200408884  MEMB      271             0.0000000000
     32533       271  POPC      H16Y           42.3151574428      -36.4352562825       -1.3954578870  MEMB      271             0.0000000000
     32534       271  POPC      H16Z           41.3252555391      -37.1095222955       -0.2469602610  MEMB      271             0.0000000000
     32535       272  POPC      N              13.8161802464      -54.8845914375      -21.2042014246  MEMB      272             0.0000000000
     32536       272  POPC      C12            14.5404741627      -54.0278483660      -20.1521677662  MEMB      272             0.0000000000
     32537       272  POPC      H12A           13.8004737151      -53.4805293316      -19.5871534697  MEMB      272             0.0000000000
     32538       272  POPC      H12B           15.2937921517      -53.4663580171      -20.6847469587  MEMB      272             0.0000000000
     32539       272  POPC      C13            14.7615251487      -55.9189776165      -21.7247517069  MEMB      272             0.0000000000
     32540       272  POPC      H13A           15.2234768610      -56.5587010065      -20.9873546961  MEMB      272             0.0000000000
     32541       272  POPC      H13B           14.3676606372      -56.4678903445      -22.5673462425  MEMB      272             0.0000000000
     32542       272  POPC      H13C           15.6426427319      -55.3916854491      -22.0594080144  MEMB      272             0.0000000000
     32543       272  POPC      C14            12.5563175508      -55.5423110054      -20.6122465966  MEMB      272             0.0000000000
     32544       272  POPC      H14A           12.0004674224      -54.7507698219      -20.1317332005  MEMB      272             0.0000000000
     32545       272  POPC      H14B           12.0772060104      -55.9508931913      -21.4896932157  MEMB      272             0.0000000000
     32546       272  POPC      H14C           12.8858513789      -56.1974450386      -19.8193993781  MEMB      272             0.0000000000
     32547       272  POPC      C15            13.3359573324      -53.8913397761      -22.2300290129  MEMB      272             0.0000000000
     32548       272  POPC      H15A           14.0794484899      -53.3393592860      -22.7858514331  MEMB      272             0.0000000000
     32549       272  POPC      H15B           12.6228061704      -53.2042633687      -21.7990516488  MEMB      272             0.0000000000
     32550       272  POPC      H15C           12.7619385868      -54.4144684320      -22.9805214623  MEMB      272             0.0000000000
     32551       272  POPC      C11            15.3847466249      -54.8039717767      -19.0829820823  MEMB      272             0.0000000000
     32552       272  POPC      H11A           15.9184619254      -53.9916818252      -18.5447868389  MEMB      272             0.0000000000
     32553       272  POPC      H11B           16.1386667564      -55.4326671865      -19.6032392640  MEMB      272             0.0000000000
     32554       272  POPC      P              14.3315869647      -55.4186728905      -16.6935938370  MEMB      272             0.0000000000
     32555       272  POPC      O13            15.5931564124      -55.3124099995      -15.9750033004  MEMB      272             0.0000000000
     32556       272  POPC      O14            13.3857628333      -56.5351389124      -16.3719602611  MEMB      272             0.0000000000
     32557       272  POPC      O12            14.7116703691      -55.6123778433      -18.2258469892  MEMB      272             0.0000000000
     32558       272  POPC      O11            13.6957739833      -53.9515674287      -16.7272170774  MEMB      272             0.0000000000
     32559       272  POPC      C1             12.5479751252      -53.5710228416      -17.5171203611  MEMB      272             0.0000000000
     32560       272  POPC      HA             12.0282713599      -54.4714155168      -17.9089392847  MEMB      272             0.0000000000
     32561       272  POPC      HB             12.7839431586      -52.9735246241      -18.4235618080  MEMB      272             0.0000000000
     32562       272  POPC      C2             11.4786320288      -52.9021855722      -16.5803282044  MEMB      272             0.0000000000
     32563       272  POPC      HS             10.8358850310      -52.3651363494      -17.3102429590  MEMB      272             0.0000000000
     32564       272  POPC      O21            12.0513380244      -52.0594846666      -15.5751056558  MEMB      272             0.0000000000
     32565       272  POPC      C21            12.7856202781      -51.0279490361      -15.9630699391  MEMB      272             0.0000000000
     32566       272  POPC      O22            12.8646881450      -50.5798530210      -17.0645667437  MEMB      272             0.0000000000
     32567       272  POPC      C22            13.5042653090      -50.4855686892      -14.7329327433  MEMB      272             0.0000000000
     32568       272  POPC      H2R            12.7092133183      -50.5142423254      -13.9574384348  MEMB      272             0.0000000000
     32569       272  POPC      H2S            13.8124387433      -49.4223323628      -14.8271565684  MEMB      272             0.0000000000
     32570       272  POPC      C3             10.6299101076      -53.9144545994      -15.7796372212  MEMB      272             0.0000000000
     32571       272  POPC      HX             10.0250093687      -54.5752783183      -16.4366972934  MEMB      272             0.0000000000
     32572       272  POPC      HY              9.9537217851      -53.3497373838      -15.1027438748  MEMB      272             0.0000000000
     32573       272  POPC      O31            11.3865181793      -54.7841198472      -14.9079286627  MEMB      272             0.0000000000
     32574       272  POPC      C31            11.4162331734      -54.6054913862      -13.6019482925  MEMB      272             0.0000000000
     32575       272  POPC      O32            11.0020629768      -53.6131331554      -13.0310886336  MEMB      272             0.0000000000
     32576       272  POPC      C32            11.9338404810      -55.7889597436      -12.8244972808  MEMB      272             0.0000000000
     32577       272  POPC      H2X            11.7619276549      -56.7928332993      -13.2683496160  MEMB      272             0.0000000000
     32578       272  POPC      H2Y            11.4052460677      -55.8826579771      -11.8518056981  MEMB      272             0.0000000000
     32579       272  POPC      C23            14.7251913672      -51.3877903754      -14.3983787642  MEMB      272             0.0000000000
     32580       272  POPC      H3R            15.4235423121      -51.6171175921      -15.2314672883  MEMB      272             0.0000000000
     32581       272  POPC      H3S            14.1981792991      -52.3353830710      -14.1562074109  MEMB      272             0.0000000000
     32582       272  POPC      C24            15.5176828438      -50.7590591555      -13.1907439099  MEMB      272             0.0000000000
     32583       272  POPC      H4R            14.6509349087      -50.3156192235      -12.6555523181  MEMB      272             0.0000000000
     32584       272  POPC      H4S            16.2391475852      -50.0110615908      -13.5835656329  MEMB      272             0.0000000000
     32585       272  POPC      C25            16.1248165697      -51.8651005140      -12.3260799582  MEMB      272             0.0000000000
     32586       272  POPC      H5R            16.9983315376      -52.4528627005      -12.6808021086  MEMB      272             0.0000000000
     32587       272  POPC      H5S            15.3154318492      -52.6237847062      -12.3862078310  MEMB      272             0.0000000000
     32588       272  POPC      C26            16.3710235930      -51.5524773792      -10.8164023109  MEMB      272             0.0000000000
     32589       272  POPC      H6R            17.2252910991      -50.8499365684      -10.7115957079  MEMB      272             0.0000000000
     32590       272  POPC      H6S            16.7804871300      -52.4785712833      -10.3592250046  MEMB      272             0.0000000000
     32591       272  POPC      C27            15.2357779734      -50.9196013056       -9.9850824491  MEMB      272             0.0000000000
     32592       272  POPC      H7R            14.8601488910      -50.0502904245      -10.5660487131  MEMB      272             0.0000000000
     32593       272  POPC      H7S            15.7134437207      -50.3812413654       -9.1387219330  MEMB      272             0.0000000000
     32594       272  POPC      C28            14.1810798616      -52.0219201445       -9.6785614541  MEMB      272             0.0000000000
     32595       272  POPC      H8R            14.7513075844      -52.9514052504       -9.4659147808  MEMB      272             0.0000000000
     32596       272  POPC      H8S            13.5482083995      -52.1736348231      -10.5789931765  MEMB      272             0.0000000000
     32597       272  POPC      C29            13.3666704666      -51.6788899574       -8.4776460193  MEMB      272             0.0000000000
     32598       272  POPC      H91            13.8587273769      -51.0055161525       -7.7603962457  MEMB      272             0.0000000000
     32599       272  POPC      C210           12.0990662587      -52.1036820205       -8.2560894736  MEMB      272             0.0000000000
     32600       272  POPC      H101           11.5520637809      -51.8646090355       -7.3321673269  MEMB      272             0.0000000000
     32601       272  POPC      C211           11.3905897748      -53.0601882843       -9.1785893847  MEMB      272             0.0000000000
     32602       272  POPC      H11R           11.7567557818      -52.9823439426      -10.2246221158  MEMB      272             0.0000000000
     32603       272  POPC      H11S           10.3087777698      -52.8120079656       -9.2276858454  MEMB      272             0.0000000000
     32604       272  POPC      C212           11.3069972893      -54.5208927446       -8.7024173092  MEMB      272             0.0000000000
     32605       272  POPC      H12R           12.3418832687      -54.9250364863       -8.7023014913  MEMB      272             0.0000000000
     32606       272  POPC      H12S           10.7554822664      -55.2435696010       -9.3410801889  MEMB      272             0.0000000000
     32607       272  POPC      C213           10.6635307167      -54.6200961624       -7.2645166518  MEMB      272             0.0000000000
     32608       272  POPC      H13R            9.6839159380      -54.1309794940       -7.4527747190  MEMB      272             0.0000000000
     32609       272  POPC      H13S           11.2538909407      -54.1244741777       -6.4644197948  MEMB      272             0.0000000000
     32610       272  POPC      C214           10.4902163797      -56.0570391842       -6.7461999169  MEMB      272             0.0000000000
     32611       272  POPC      H14R           11.4047960165      -56.5027669743       -6.2998899295  MEMB      272             0.0000000000
     32612       272  POPC      H14S           10.1959768520      -56.6334757675       -7.6492307574  MEMB      272             0.0000000000
     32613       272  POPC      C215            9.4286420733      -56.1587459218       -5.6779469845  MEMB      272             0.0000000000
     32614       272  POPC      H15R            9.1555706835      -57.2324456237       -5.5947495947  MEMB      272             0.0000000000
     32615       272  POPC      H15S            8.4945109761      -55.6670771387       -6.0243302941  MEMB      272             0.0000000000
     32616       272  POPC      C216            9.8619498582      -55.5130308861       -4.3453435529  MEMB      272             0.0000000000
     32617       272  POPC      H16R           10.1846681021      -54.4829952311       -4.6084035641  MEMB      272             0.0000000000
     32618       272  POPC      H16S           10.7485657773      -56.0348022870       -3.9258345987  MEMB      272             0.0000000000
     32619       272  POPC      C217            8.6523740175      -55.5009405623       -3.3348029536  MEMB      272             0.0000000000
     32620       272  POPC      H17R            8.6423959973      -56.5444354909       -2.9535690091  MEMB      272             0.0000000000
     32621       272  POPC      H17S            7.7739637183      -55.1476045722       -3.9160696494  MEMB      272             0.0000000000
     32622       272  POPC      C218            8.9339484172      -54.6337628834       -2.1121457213  MEMB      272             0.0000000000
     32623       272  POPC      H18R            9.0564967857      -53.5944962168       -2.4852782241  MEMB      272             0.0000000000
     32624       272  POPC      H18S            9.7940933107      -54.9528698136       -1.4855338432  MEMB      272             0.0000000000
     32625       272  POPC      H18T            8.1296043817      -54.8079578509       -1.3658159392  MEMB      272             0.0000000000
     32626       272  POPC      C33            13.4661226661      -55.5397023892      -12.7236728079  MEMB      272             0.0000000000
     32627       272  POPC      H3X            13.6120650542      -54.6565093407      -12.0656519794  MEMB      272             0.0000000000
     32628       272  POPC      H3Y            13.9132134115      -55.1630130133      -13.6684140258  MEMB      272             0.0000000000
     32629       272  POPC      C34            14.2710253156      -56.6702663753      -12.0264447693  MEMB      272             0.0000000000
     32630       272  POPC      H4X            15.2290603895      -56.1949434265      -11.7255160525  MEMB      272             0.0000000000
     32631       272  POPC      H4Y            14.4727821490      -57.5714666972      -12.6440636977  MEMB      272             0.0000000000
     32632       272  POPC      C35            13.7191281079      -57.1479134911      -10.6859583728  MEMB      272             0.0000000000
     32633       272  POPC      H5X            12.7748346533      -57.7266436738      -10.7737189431  MEMB      272             0.0000000000
     32634       272  POPC      H5Y            13.4197960164      -56.2972301760      -10.0370669109  MEMB      272             0.0000000000
     32635       272  POPC      C36            14.7944346443      -57.9862160989       -9.9569614551  MEMB      272             0.0000000000
     32636       272  POPC      H6X            15.7494076992      -57.4185749080       -9.9684138519  MEMB      272             0.0000000000
     32637       272  POPC      H6Y            14.8470571755      -58.9701741306      -10.4701658742  MEMB      272             0.0000000000
     32638       272  POPC      C37            14.4571663146      -58.1993165721       -8.4646478881  MEMB      272             0.0000000000
     32639       272  POPC      H7X            14.9333971447      -59.1804185920       -8.2526003389  MEMB      272             0.0000000000
     32640       272  POPC      H7Y            13.3713549217      -58.3339023363       -8.2717204081  MEMB      272             0.0000000000
     32641       272  POPC      C38            15.0057571686      -57.0012125632       -7.6486506927  MEMB      272             0.0000000000
     32642       272  POPC      H8X            14.7922574388      -56.0251342603       -8.1344593191  MEMB      272             0.0000000000
     32643       272  POPC      H8Y            16.1127415100      -57.0797930009       -7.7009188700  MEMB      272             0.0000000000
     32644       272  POPC      C39            14.5194191149      -57.0680580339       -6.1772360759  MEMB      272             0.0000000000
     32645       272  POPC      H9X            14.4278156442      -58.1128762810       -5.8107876753  MEMB      272             0.0000000000
     32646       272  POPC      H9Y            13.4657356113      -56.7232559769       -6.1052372841  MEMB      272             0.0000000000
     32647       272  POPC      C310           15.5359261841      -56.3516040284       -5.3005948497  MEMB      272             0.0000000000
     32648       272  POPC      H10X           16.5501548177      -56.8005546342       -5.3646614215  MEMB      272             0.0000000000
     32649       272  POPC      H10Y           15.2335450547      -56.6498825299       -4.2739907428  MEMB      272             0.0000000000
     32650       272  POPC      C311           15.7524034928      -54.8362267835       -5.6858492026  MEMB      272             0.0000000000
     32651       272  POPC      H11X           14.7372810099      -54.3981130446       -5.7949536099  MEMB      272             0.0000000000
     32652       272  POPC      H11Y           16.1097700332      -54.8782953936       -6.7369634092  MEMB      272             0.0000000000
     32653       272  POPC      C312           16.8387509244      -53.9812719956       -4.8538640434  MEMB      272             0.0000000000
     32654       272  POPC      H12X           17.0457475465      -53.0998850799       -5.4977816821  MEMB      272             0.0000000000
     32655       272  POPC      H12Y           17.7802540192      -54.5512311517       -4.7020761703  MEMB      272             0.0000000000
     32656       272  POPC      C313           16.2942155388      -53.3569220345       -3.5186821104  MEMB      272             0.0000000000
     32657       272  POPC      H13X           15.4206679279      -52.7424140276       -3.8246484493  MEMB      272             0.0000000000
     32658       272  POPC      H13Y           17.0640966568      -52.6562935031       -3.1304498788  MEMB      272             0.0000000000
     32659       272  POPC      C314           15.8232230781      -54.3623956930       -2.4386221959  MEMB      272             0.0000000000
     32660       272  POPC      H14X           16.5098164139      -55.2197953532       -2.6052839060  MEMB      272             0.0000000000
     32661       272  POPC      H14Y           14.8661450223      -54.8614809669       -2.7017498934  MEMB      272             0.0000000000
     32662       272  POPC      C315           16.0079832549      -53.9472979363       -0.9823519051  MEMB      272             0.0000000000
     32663       272  POPC      H15X           15.5383974590      -52.9854730170       -0.6845232563  MEMB      272             0.0000000000
     32664       272  POPC      H15Y           17.1083856483      -53.8016277825       -0.9352815594  MEMB      272             0.0000000000
     32665       272  POPC      C316           15.7470122891      -55.1030034342       -0.0589405301  MEMB      272             0.0000000000
     32666       272  POPC      H16X           14.6485916244      -55.2551950684        0.0091079150  MEMB      272             0.0000000000
     32667       272  POPC      H16Y           16.1763663265      -54.8878312308        0.9428951449  MEMB      272             0.0000000000
     32668       272  POPC      H16Z           16.2680418532      -56.0057164014       -0.4435944071  MEMB      272             0.0000000000
     32669       273  POPC      N              54.7900265428      -19.4579192423      -20.2544192834  MEMB      273             0.0000000000
     32670       273  POPC      C12            53.4061107137      -20.0481288252      -20.0195330501  MEMB      273             0.0000000000
     32671       273  POPC      H12A           52.6857372155      -19.6014221354      -20.6887976982  MEMB      273             0.0000000000
     32672       273  POPC      H12B           53.1746331534      -19.6218627100      -19.0545898785  MEMB      273             0.0000000000
     32673       273  POPC      C13            55.2841589475      -19.9237201640      -21.6243003134  MEMB      273             0.0000000000
     32674       273  POPC      H13A           56.2751902892      -19.5418643362      -21.8203685366  MEMB      273             0.0000000000
     32675       273  POPC      H13B           55.5325838119      -20.9740957208      -21.6616652306  MEMB      273             0.0000000000
     32676       273  POPC      H13C           54.7180896939      -19.6718649377      -22.5089101990  MEMB      273             0.0000000000
     32677       273  POPC      C14            54.7494552825      -17.9436646816      -20.4375370067  MEMB      273             0.0000000000
     32678       273  POPC      H14A           54.0427541384      -17.7317878965      -21.2262585105  MEMB      273             0.0000000000
     32679       273  POPC      H14B           54.4644112745      -17.4495962173      -19.5204513035  MEMB      273             0.0000000000
     32680       273  POPC      H14C           55.7050048684      -17.5899750156      -20.7956271225  MEMB      273             0.0000000000
     32681       273  POPC      C15            55.7776508779      -19.8743779089      -19.2097573094  MEMB      273             0.0000000000
     32682       273  POPC      H15A           56.7233875187      -19.3778813672      -19.3693616589  MEMB      273             0.0000000000
     32683       273  POPC      H15B           55.8476200327      -20.9516713571      -19.2404693175  MEMB      273             0.0000000000
     32684       273  POPC      H15C           55.3357417605      -19.5743738649      -18.2710805914  MEMB      273             0.0000000000
     32685       273  POPC      C11            53.3291095774      -21.5452098484      -19.9868843893  MEMB      273             0.0000000000
     32686       273  POPC      H11A           53.8159142377      -21.9468536879      -20.9012281946  MEMB      273             0.0000000000
     32687       273  POPC      H11B           52.2645871855      -21.8631874734      -19.9850388224  MEMB      273             0.0000000000
     32688       273  POPC      P              53.3219296041      -22.1479333842      -17.4347561812  MEMB      273             0.0000000000
     32689       273  POPC      O13            54.3403144434      -21.7862562055      -16.4273569432  MEMB      273             0.0000000000
     32690       273  POPC      O14            52.6446590508      -23.4450516478      -17.2806800158  MEMB      273             0.0000000000
     32691       273  POPC      O12            53.9810938947      -22.0322718714      -18.8577475221  MEMB      273             0.0000000000
     32692       273  POPC      O11            52.3241089540      -20.9221981361      -17.4670279852  MEMB      273             0.0000000000
     32693       273  POPC      C1             51.1989930492      -20.9169831844      -16.6036853775  MEMB      273             0.0000000000
     32694       273  POPC      HA             51.3727736844      -21.5564018601      -15.7119090147  MEMB      273             0.0000000000
     32695       273  POPC      HB             50.3270217235      -21.3561139514      -17.1339223924  MEMB      273             0.0000000000
     32696       273  POPC      C2             50.8093161311      -19.4622573200      -16.1227174696  MEMB      273             0.0000000000
     32697       273  POPC      HS             50.4613659075      -19.0140793085      -17.0779075364  MEMB      273             0.0000000000
     32698       273  POPC      O21            51.9260386576      -18.8010335448      -15.4492115319  MEMB      273             0.0000000000
     32699       273  POPC      C21            52.8084995961      -18.3148358081      -16.2986861433  MEMB      273             0.0000000000
     32700       273  POPC      O22            52.7605479447      -18.4053333654      -17.5341793441  MEMB      273             0.0000000000
     32701       273  POPC      C22            53.8269512024      -17.3884689959      -15.5961874625  MEMB      273             0.0000000000
     32702       273  POPC      H2R            53.4189154281      -16.8910081513      -14.6904498585  MEMB      273             0.0000000000
     32703       273  POPC      H2S            54.1523172337      -16.5409636743      -16.2366501812  MEMB      273             0.0000000000
     32704       273  POPC      C3             49.6665862199      -19.3242678689      -15.1595452392  MEMB      273             0.0000000000
     32705       273  POPC      HX             48.6901358138      -19.6976013559      -15.5356942187  MEMB      273             0.0000000000
     32706       273  POPC      HY             49.3656135688      -18.2583463021      -15.0726667671  MEMB      273             0.0000000000
     32707       273  POPC      O31            49.9028395511      -19.8946009599      -13.8871144529  MEMB      273             0.0000000000
     32708       273  POPC      C31            50.1282693021      -19.1793714219      -12.8345180213  MEMB      273             0.0000000000
     32709       273  POPC      O32            49.9952073183      -17.9868144977      -12.6596413330  MEMB      273             0.0000000000
     32710       273  POPC      C32            50.5134651101      -20.1441297096      -11.7388108398  MEMB      273             0.0000000000
     32711       273  POPC      H2X            51.4016911268      -20.6617814273      -12.1600141706  MEMB      273             0.0000000000
     32712       273  POPC      H2Y            49.7268769454      -20.8743215232      -11.4517223227  MEMB      273             0.0000000000
     32713       273  POPC      C23            55.0986543626      -18.1183111771      -15.1379745571  MEMB      273             0.0000000000
     32714       273  POPC      H3R            55.8203191960      -18.2061746250      -15.9780940716  MEMB      273             0.0000000000
     32715       273  POPC      H3S            54.8475712242      -19.1736190806      -14.8979676343  MEMB      273             0.0000000000
     32716       273  POPC      C24            55.7665061269      -17.4738456479      -13.9646283314  MEMB      273             0.0000000000
     32717       273  POPC      H4R            55.9128723193      -16.3839098878      -14.1225467895  MEMB      273             0.0000000000
     32718       273  POPC      H4S            56.7709253141      -17.9262481711      -13.8204241226  MEMB      273             0.0000000000
     32719       273  POPC      C25            54.8264846124      -17.6712057671      -12.7792167186  MEMB      273             0.0000000000
     32720       273  POPC      H5R            53.8858829045      -18.2205042908      -12.9979871569  MEMB      273             0.0000000000
     32721       273  POPC      H5S            54.5537045710      -16.6831479498      -12.3506682138  MEMB      273             0.0000000000
     32722       273  POPC      C26            55.5974600628      -18.4206515432      -11.6662858589  MEMB      273             0.0000000000
     32723       273  POPC      H6R            56.3701584147      -17.7083678221      -11.3058556831  MEMB      273             0.0000000000
     32724       273  POPC      H6S            56.1071303614      -19.3096868073      -12.0954401454  MEMB      273             0.0000000000
     32725       273  POPC      C27            54.6442344179      -18.7616352269      -10.5292326596  MEMB      273             0.0000000000
     32726       273  POPC      H7R            53.8417751547      -19.4730625071      -10.8194943121  MEMB      273             0.0000000000
     32727       273  POPC      H7S            54.1460310809      -17.7924581959      -10.3128760697  MEMB      273             0.0000000000
     32728       273  POPC      C28            55.2633213203      -19.2823365047       -9.2091017631  MEMB      273             0.0000000000
     32729       273  POPC      H8R            55.5870731315      -20.3270770152       -9.4040971275  MEMB      273             0.0000000000
     32730       273  POPC      H8S            54.4728566330      -19.3749201036       -8.4339149159  MEMB      273             0.0000000000
     32731       273  POPC      C29            56.3602836447      -18.4074158900       -8.7000795019  MEMB      273             0.0000000000
     32732       273  POPC      H91            57.2170499719      -18.3687785474       -9.3888892540  MEMB      273             0.0000000000
     32733       273  POPC      C210           56.2102139428      -17.6183649074       -7.6282409357  MEMB      273             0.0000000000
     32734       273  POPC      H101           57.0615529058      -16.9793737800       -7.3509096748  MEMB      273             0.0000000000
     32735       273  POPC      C211           54.9795416699      -17.5168303764       -6.6906496149  MEMB      273             0.0000000000
     32736       273  POPC      H11R           54.0681158735      -17.6320476999       -7.3154280227  MEMB      273             0.0000000000
     32737       273  POPC      H11S           55.0062995146      -16.4916255981       -6.2633783878  MEMB      273             0.0000000000
     32738       273  POPC      C212           54.9384758275      -18.4966589011       -5.5285931439  MEMB      273             0.0000000000
     32739       273  POPC      H12R           54.9413594896      -19.5189220906       -5.9636679619  MEMB      273             0.0000000000
     32740       273  POPC      H12S           54.0231893469      -18.2610088135       -4.9446057010  MEMB      273             0.0000000000
     32741       273  POPC      C213           56.0288081280      -18.2898844468       -4.4723452048  MEMB      273             0.0000000000
     32742       273  POPC      H13R           55.7265093981      -17.3265709680       -4.0087032456  MEMB      273             0.0000000000
     32743       273  POPC      H13S           57.0320937481      -18.4333405160       -4.9274927871  MEMB      273             0.0000000000
     32744       273  POPC      C214           56.0137281390      -19.3010689142       -3.3261458995  MEMB      273             0.0000000000
     32745       273  POPC      H14R           54.9871533071      -19.3531834309       -2.9045425956  MEMB      273             0.0000000000
     32746       273  POPC      H14S           56.6202030698      -18.9994453095       -2.4455019974  MEMB      273             0.0000000000
     32747       273  POPC      C215           56.5756972785      -20.7149904600       -3.5967754683  MEMB      273             0.0000000000
     32748       273  POPC      H15R           57.6547180128      -20.5769231836       -3.8225465873  MEMB      273             0.0000000000
     32749       273  POPC      H15S           56.0407330018      -21.1908501479       -4.4462999449  MEMB      273             0.0000000000
     32750       273  POPC      C216           56.3696165778      -21.5706067515       -2.3061624900  MEMB      273             0.0000000000
     32751       273  POPC      H16R           55.2942192124      -21.7689287216       -2.1099231379  MEMB      273             0.0000000000
     32752       273  POPC      H16S           56.8018325108      -21.1149968465       -1.3896858423  MEMB      273             0.0000000000
     32753       273  POPC      C217           56.9445017595      -23.0350666266       -2.4079212185  MEMB      273             0.0000000000
     32754       273  POPC      H17R           58.0259794914      -23.0077171132       -2.6608608918  MEMB      273             0.0000000000
     32755       273  POPC      H17S           56.2481789823      -23.4574561769       -3.1635942783  MEMB      273             0.0000000000
     32756       273  POPC      C218           56.8082370694      -23.8198522439       -1.0799434888  MEMB      273             0.0000000000
     32757       273  POPC      H18R           55.8109148248      -23.6492242995       -0.6210808308  MEMB      273             0.0000000000
     32758       273  POPC      H18S           57.6027021463      -23.4009919441       -0.4259547886  MEMB      273             0.0000000000
     32759       273  POPC      H18T           56.9859518323      -24.9070873129       -1.2236770435  MEMB      273             0.0000000000
     32760       273  POPC      C33            51.0429155053      -19.4831615176      -10.4750057173  MEMB      273             0.0000000000
     32761       273  POPC      H3X            51.6379182414      -18.5910350423      -10.7655278058  MEMB      273             0.0000000000
     32762       273  POPC      H3Y            51.7373746823      -20.0920769656       -9.8575362109  MEMB      273             0.0000000000
     32763       273  POPC      C34            49.8726679384      -19.2564544973       -9.6575136302  MEMB      273             0.0000000000
     32764       273  POPC      H4X            49.5431744512      -20.2207515829       -9.2149227136  MEMB      273             0.0000000000
     32765       273  POPC      H4Y            48.9704495331      -18.9636192182      -10.2359335251  MEMB      273             0.0000000000
     32766       273  POPC      C35            50.1162310309      -18.3479952356       -8.3915205879  MEMB      273             0.0000000000
     32767       273  POPC      H5X            49.2972666178      -18.4683257054       -7.6504814709  MEMB      273             0.0000000000
     32768       273  POPC      H5Y            50.1201470815      -17.3874882071       -8.9498501967  MEMB      273             0.0000000000
     32769       273  POPC      C36            51.3725740944      -18.5899651090       -7.5253043466  MEMB      273             0.0000000000
     32770       273  POPC      H6X            51.2900586902      -17.8664049100       -6.6862730171  MEMB      273             0.0000000000
     32771       273  POPC      H6Y            52.2718208269      -18.2634103355       -8.0901387542  MEMB      273             0.0000000000
     32772       273  POPC      C37            51.5846424626      -20.0212013942       -6.9270320439  MEMB      273             0.0000000000
     32773       273  POPC      H7X            52.5441356968      -19.9542482521       -6.3709650548  MEMB      273             0.0000000000
     32774       273  POPC      H7Y            51.6329620572      -20.7472408149       -7.7665876958  MEMB      273             0.0000000000
     32775       273  POPC      C38            50.4454252034      -20.3308588701       -5.9387024879  MEMB      273             0.0000000000
     32776       273  POPC      H8X            49.5637987987      -20.5790789545       -6.5675446888  MEMB      273             0.0000000000
     32777       273  POPC      H8Y            50.2738414534      -19.3447831411       -5.4564843213  MEMB      273             0.0000000000
     32778       273  POPC      C39            50.6647056872      -21.5188274324       -5.0228868844  MEMB      273             0.0000000000
     32779       273  POPC      H9X            50.7100989644      -22.3800927013       -5.7232314909  MEMB      273             0.0000000000
     32780       273  POPC      H9Y            49.7458138278      -21.6969724932       -4.4243691720  MEMB      273             0.0000000000
     32781       273  POPC      C310           51.9766747634      -21.4136867929       -4.1252480972  MEMB      273             0.0000000000
     32782       273  POPC      H10X           52.8657755122      -21.3632851313       -4.7895370770  MEMB      273             0.0000000000
     32783       273  POPC      H10Y           51.9509434448      -22.3554493825       -3.5363994905  MEMB      273             0.0000000000
     32784       273  POPC      C311           51.9810299501      -20.3969364397       -3.0082434317  MEMB      273             0.0000000000
     32785       273  POPC      H11X           52.3905456213      -19.4336678927       -3.3807107122  MEMB      273             0.0000000000
     32786       273  POPC      H11Y           52.7525795706      -20.8223118899       -2.3314216168  MEMB      273             0.0000000000
     32787       273  POPC      C312           50.7076490918      -20.1746287219       -2.1622164703  MEMB      273             0.0000000000
     32788       273  POPC      H12X           50.4049256129      -21.0934292760       -1.6158789480  MEMB      273             0.0000000000
     32789       273  POPC      H12Y           49.9003960247      -19.7578364295       -2.8017061340  MEMB      273             0.0000000000
     32790       273  POPC      C313           50.7799156983      -19.2123135992       -0.9282463970  MEMB      273             0.0000000000
     32791       273  POPC      H13X           49.7946479350      -19.3774105009       -0.4421294273  MEMB      273             0.0000000000
     32792       273  POPC      H13Y           50.6066205817      -18.1982095661       -1.3476305303  MEMB      273             0.0000000000
     32793       273  POPC      C314           52.0155265539      -19.4456484135        0.0283427433  MEMB      273             0.0000000000
     32794       273  POPC      H14X           51.9035245520      -18.7516614019        0.8886684854  MEMB      273             0.0000000000
     32795       273  POPC      H14Y           52.9865056438      -19.2362563633       -0.4693270160  MEMB      273             0.0000000000
     32796       273  POPC      C315           52.1551857130      -20.8690456483        0.5966506015  MEMB      273             0.0000000000
     32797       273  POPC      H15X           52.9888005526      -20.8429450145        1.3306300012  MEMB      273             0.0000000000
     32798       273  POPC      H15Y           52.6275102114      -21.5933702440       -0.1009055389  MEMB      273             0.0000000000
     32799       273  POPC      C316           51.0064146899      -21.6186624657        1.1941262858  MEMB      273             0.0000000000
     32800       273  POPC      H16X           50.1784441686      -21.6777377936        0.4556845198  MEMB      273             0.0000000000
     32801       273  POPC      H16Y           50.7191227666      -21.0167174992        2.0826350283  MEMB      273             0.0000000000
     32802       273  POPC      H16Z           51.1634481955      -22.6622171507        1.5414814636  MEMB      273             0.0000000000
     32803       274  POPC      N              49.9566530119       24.0684214624      -20.3920048613  MEMB      274             0.0000000000
     32804       274  POPC      C12            49.2100667262       24.6161048118      -19.2242938515  MEMB      274             0.0000000000
     32805       274  POPC      H12A           48.6242926574       23.8224524173      -18.7845386408  MEMB      274             0.0000000000
     32806       274  POPC      H12B           48.6361984049       25.4948497105      -19.4790142921  MEMB      274             0.0000000000
     32807       274  POPC      C13            48.8061052722       23.7207970244      -21.4392183006  MEMB      274             0.0000000000
     32808       274  POPC      H13A           49.1348460822       23.1924572677      -22.3219337810  MEMB      274             0.0000000000
     32809       274  POPC      H13B           48.0198681443       23.2561315959      -20.8627486290  MEMB      274             0.0000000000
     32810       274  POPC      H13C           48.3929223331       24.6603417529      -21.7752770048  MEMB      274             0.0000000000
     32811       274  POPC      C14            50.8011489125       24.9954018719      -21.0786369050  MEMB      274             0.0000000000
     32812       274  POPC      H14A           51.2070287113       24.4470697695      -21.9158905109  MEMB      274             0.0000000000
     32813       274  POPC      H14B           50.2806562528       25.8767989944      -21.4230588133  MEMB      274             0.0000000000
     32814       274  POPC      H14C           51.6054902559       25.3820805145      -20.4704308939  MEMB      274             0.0000000000
     32815       274  POPC      C15            50.5975361964       22.7229570777      -20.1187534828  MEMB      274             0.0000000000
     32816       274  POPC      H15A           50.0523623504       22.0810066794      -19.4426727491  MEMB      274             0.0000000000
     32817       274  POPC      H15B           51.4757309911       22.9535790242      -19.5339564310  MEMB      274             0.0000000000
     32818       274  POPC      H15C           50.8642869178       22.2701745267      -21.0622746613  MEMB      274             0.0000000000
     32819       274  POPC      C11            50.1148677667       25.0513790229      -17.9898555769  MEMB      274             0.0000000000
     32820       274  POPC      H11A           50.7889714142       24.2068913302      -17.7315031575  MEMB      274             0.0000000000
     32821       274  POPC      H11B           49.4840469533       25.2017931051      -17.0877680649  MEMB      274             0.0000000000
     32822       274  POPC      P              50.8659795660       27.5495738913      -17.7422269195  MEMB      274             0.0000000000
     32823       274  POPC      O13            51.5714106605       28.5646296647      -18.4959434207  MEMB      274             0.0000000000
     32824       274  POPC      O14            51.4764132626       27.3153513062      -16.4076575307  MEMB      274             0.0000000000
     32825       274  POPC      O12            50.9821614160       26.1399630214      -18.4686256750  MEMB      274             0.0000000000
     32826       274  POPC      O11            49.3580817987       27.8293245445      -17.6427834809  MEMB      274             0.0000000000
     32827       274  POPC      C1             48.6690589583       28.9930852751      -17.9070216049  MEMB      274             0.0000000000
     32828       274  POPC      HA             48.0830775751       28.7795479683      -18.8264500616  MEMB      274             0.0000000000
     32829       274  POPC      HB             49.3291683912       29.8824037890      -17.9947090453  MEMB      274             0.0000000000
     32830       274  POPC      C2             47.5996822384       29.2802764165      -16.8673689487  MEMB      274             0.0000000000
     32831       274  POPC      HS             47.1723521344       30.2985510732      -16.9891343329  MEMB      274             0.0000000000
     32832       274  POPC      O21            48.0418986311       29.0766377119      -15.5416401898  MEMB      274             0.0000000000
     32833       274  POPC      C21            48.9237628715       30.0232884678      -15.1065806775  MEMB      274             0.0000000000
     32834       274  POPC      O22            49.3721445426       30.8884046748      -15.8437889449  MEMB      274             0.0000000000
     32835       274  POPC      C22            49.2522865686       29.8611435599      -13.5223235705  MEMB      274             0.0000000000
     32836       274  POPC      H2R            49.8179879070       28.9109524108      -13.4153654191  MEMB      274             0.0000000000
     32837       274  POPC      H2S            48.2977366732       29.7861676947      -12.9588219160  MEMB      274             0.0000000000
     32838       274  POPC      C3             46.4202122712       28.2214072664      -17.0778172035  MEMB      274             0.0000000000
     32839       274  POPC      HX             46.0891683526       28.3229631546      -18.1334769451  MEMB      274             0.0000000000
     32840       274  POPC      HY             45.6854607656       28.6941076360      -16.3915113510  MEMB      274             0.0000000000
     32841       274  POPC      O31            46.7716848634       26.8549974040      -16.7587096624  MEMB      274             0.0000000000
     32842       274  POPC      C31            46.5978390055       26.5479266526      -15.4625944474  MEMB      274             0.0000000000
     32843       274  POPC      O32            46.0201131252       27.2246335632      -14.6579607270  MEMB      274             0.0000000000
     32844       274  POPC      C32            47.3958712569       25.2470876712      -15.0464614055  MEMB      274             0.0000000000
     32845       274  POPC      H2X            47.6745798285       24.7183711105      -15.9829984956  MEMB      274             0.0000000000
     32846       274  POPC      H2Y            46.6717117556       24.7804709804      -14.3449043559  MEMB      274             0.0000000000
     32847       274  POPC      C23            49.9567083525       31.0672099963      -12.8107963598  MEMB      274             0.0000000000
     32848       274  POPC      H3R            49.4316782989       32.0396537253      -12.9248910632  MEMB      274             0.0000000000
     32849       274  POPC      H3S            50.8944295103       31.1663987434      -13.3983012559  MEMB      274             0.0000000000
     32850       274  POPC      C24            50.3215735555       30.9385468981      -11.3160394317  MEMB      274             0.0000000000
     32851       274  POPC      H4R            51.0269559804       31.7055266556      -10.9306841334  MEMB      274             0.0000000000
     32852       274  POPC      H4S            50.6809428542       29.9008114624      -11.1478732629  MEMB      274             0.0000000000
     32853       274  POPC      C25            49.1373847292       31.1062666754      -10.3403209332  MEMB      274             0.0000000000
     32854       274  POPC      H5R            48.4237632576       30.2857803447      -10.5680660600  MEMB      274             0.0000000000
     32855       274  POPC      H5S            48.6911287030       32.0493442760      -10.7221332463  MEMB      274             0.0000000000
     32856       274  POPC      C26            49.5032213994       31.4057641490       -8.9149461638  MEMB      274             0.0000000000
     32857       274  POPC      H6R            48.7577922379       32.1865941888       -8.6523430488  MEMB      274             0.0000000000
     32858       274  POPC      H6S            50.4727779396       31.9473005596       -8.9468770412  MEMB      274             0.0000000000
     32859       274  POPC      C27            49.6395600015       30.1619159707       -7.9721094598  MEMB      274             0.0000000000
     32860       274  POPC      H7R            49.9620033277       30.5902116781       -6.9990144101  MEMB      274             0.0000000000
     32861       274  POPC      H7S            50.3723887585       29.3669955309       -8.2278130255  MEMB      274             0.0000000000
     32862       274  POPC      C28            48.2349325652       29.4750174958       -7.6767808207  MEMB      274             0.0000000000
     32863       274  POPC      H8R            48.3960167184       28.7983826626       -6.8104451744  MEMB      274             0.0000000000
     32864       274  POPC      H8S            47.9013252909       28.9490890853       -8.5967954426  MEMB      274             0.0000000000
     32865       274  POPC      C29            47.1397761135       30.4745178337       -7.3247189693  MEMB      274             0.0000000000
     32866       274  POPC      H91            46.6488718302       30.8437675765       -8.2372255038  MEMB      274             0.0000000000
     32867       274  POPC      C210           46.6546499537       30.8506935890       -6.1338934346  MEMB      274             0.0000000000
     32868       274  POPC      H101           45.7978300441       31.5295781592       -6.0115197629  MEMB      274             0.0000000000
     32869       274  POPC      C211           47.0528492055       30.3419514915       -4.7892213569  MEMB      274             0.0000000000
     32870       274  POPC      H11R           47.2828129696       31.1261571786       -4.0365868607  MEMB      274             0.0000000000
     32871       274  POPC      H11S           47.9080738460       29.6500522799       -4.9447422518  MEMB      274             0.0000000000
     32872       274  POPC      C212           46.1140104288       29.2188277788       -4.1542676063  MEMB      274             0.0000000000
     32873       274  POPC      H12R           46.1174089369       28.2862677188       -4.7581234642  MEMB      274             0.0000000000
     32874       274  POPC      H12S           45.0751857301       29.6103671957       -4.1111244911  MEMB      274             0.0000000000
     32875       274  POPC      C213           46.4911060042       28.9512959355       -2.7606922058  MEMB      274             0.0000000000
     32876       274  POPC      H13R           47.5910626616       28.8144206471       -2.6853166212  MEMB      274             0.0000000000
     32877       274  POPC      H13S           46.2230468782       27.9149044087       -2.4634403694  MEMB      274             0.0000000000
     32878       274  POPC      C214           45.9978498329       29.9404735306       -1.6532925370  MEMB      274             0.0000000000
     32879       274  POPC      H14R           44.9327628914       29.6921159392       -1.4577690430  MEMB      274             0.0000000000
     32880       274  POPC      H14S           46.0354301884       30.9680086512       -2.0741021926  MEMB      274             0.0000000000
     32881       274  POPC      C215           46.9232012005       30.0626836276       -0.4427559279  MEMB      274             0.0000000000
     32882       274  POPC      H15R           46.4297091003       30.8586596930        0.1549137453  MEMB      274             0.0000000000
     32883       274  POPC      H15S           47.9017376580       30.4773863202       -0.7665000260  MEMB      274             0.0000000000
     32884       274  POPC      C216           46.9558822483       28.7514890918        0.3821339470  MEMB      274             0.0000000000
     32885       274  POPC      H16R           47.2929080081       28.9456785564        1.4228190980  MEMB      274             0.0000000000
     32886       274  POPC      H16S           47.6916196932       28.0781526630       -0.1073861455  MEMB      274             0.0000000000
     32887       274  POPC      C217           45.5996949873       28.0701182587        0.5631017057  MEMB      274             0.0000000000
     32888       274  POPC      H17R           45.2652759968       27.5826141836       -0.3775500619  MEMB      274             0.0000000000
     32889       274  POPC      H17S           44.7995283695       28.7386152440        0.9467240754  MEMB      274             0.0000000000
     32890       274  POPC      C218           45.7367753568       26.7732027256        1.5134271410  MEMB      274             0.0000000000
     32891       274  POPC      H18R           45.9761861102       27.2222686026        2.5010219140  MEMB      274             0.0000000000
     32892       274  POPC      H18S           46.6982672480       26.3019292412        1.2171908007  MEMB      274             0.0000000000
     32893       274  POPC      H18T           44.8610721400       26.0902478197        1.4812194679  MEMB      274             0.0000000000
     32894       274  POPC      C33            48.7579872984       25.5771296289      -14.3851232119  MEMB      274             0.0000000000
     32895       274  POPC      H3X            49.3094752052       26.2656760409      -15.0604647139  MEMB      274             0.0000000000
     32896       274  POPC      H3Y            49.4716078812       24.7329139504      -14.2739184752  MEMB      274             0.0000000000
     32897       274  POPC      C34            48.5725007629       26.1004379521      -12.9181598469  MEMB      274             0.0000000000
     32898       274  POPC      H4X            47.9099399955       25.3912105083      -12.3774834346  MEMB      274             0.0000000000
     32899       274  POPC      H4Y            48.0353813972       27.0698932343      -12.9954924944  MEMB      274             0.0000000000
     32900       274  POPC      C35            49.9065890559       26.2644852935      -12.2316990498  MEMB      274             0.0000000000
     32901       274  POPC      H5X            50.5752217408       26.8399587393      -12.9070374341  MEMB      274             0.0000000000
     32902       274  POPC      H5Y            50.2797264414       25.2240411452      -12.1196032800  MEMB      274             0.0000000000
     32903       274  POPC      C36            49.8617173194       26.9442266039      -10.7895653145  MEMB      274             0.0000000000
     32904       274  POPC      H6X            48.9792008740       26.5548991178      -10.2382855251  MEMB      274             0.0000000000
     32905       274  POPC      H6Y            49.5790380069       27.9824275114      -11.0662462146  MEMB      274             0.0000000000
     32906       274  POPC      C37            51.1402031438       26.9947698901       -9.9886831736  MEMB      274             0.0000000000
     32907       274  POPC      H7X            51.1237310198       27.6871086139       -9.1199385330  MEMB      274             0.0000000000
     32908       274  POPC      H7Y            52.0528767052       27.2936019178      -10.5472941887  MEMB      274             0.0000000000
     32909       274  POPC      C38            51.4878971121       25.6220821048       -9.3000068973  MEMB      274             0.0000000000
     32910       274  POPC      H8X            52.4720474239       25.6414247281       -8.7848419885  MEMB      274             0.0000000000
     32911       274  POPC      H8Y            51.4399075493       24.8674440608      -10.1139721740  MEMB      274             0.0000000000
     32912       274  POPC      C39            50.4484160157       25.4115953856       -8.1804988430  MEMB      274             0.0000000000
     32913       274  POPC      H9X            49.4675720630       25.4654315921       -8.6995058945  MEMB      274             0.0000000000
     32914       274  POPC      H9Y            50.4300754944       26.2283324978       -7.4275553958  MEMB      274             0.0000000000
     32915       274  POPC      C310           50.6304669685       24.1776463204       -7.2685945510  MEMB      274             0.0000000000
     32916       274  POPC      H10X           51.7090491921       23.9818236375       -7.0879430394  MEMB      274             0.0000000000
     32917       274  POPC      H10Y           50.1613448433       23.3120758470       -7.7834084669  MEMB      274             0.0000000000
     32918       274  POPC      C311           49.9357822237       24.2637977207       -5.8628105822  MEMB      274             0.0000000000
     32919       274  POPC      H11X           49.7465759918       23.2348070375       -5.4890454322  MEMB      274             0.0000000000
     32920       274  POPC      H11Y           48.9132380250       24.6465390633       -6.0683182112  MEMB      274             0.0000000000
     32921       274  POPC      C312           50.6059699099       25.1324460069       -4.8482475955  MEMB      274             0.0000000000
     32922       274  POPC      H12X           50.3840814829       26.2100353724       -5.0028045969  MEMB      274             0.0000000000
     32923       274  POPC      H12Y           51.6893163219       24.9857799459       -5.0461641230  MEMB      274             0.0000000000
     32924       274  POPC      C313           50.1881961803       24.8219447708       -3.3565734104  MEMB      274             0.0000000000
     32925       274  POPC      H13X           50.9751084835       25.3558431557       -2.7820806495  MEMB      274             0.0000000000
     32926       274  POPC      H13Y           50.3481088021       23.7350866192       -3.1907780188  MEMB      274             0.0000000000
     32927       274  POPC      C314           48.8045597437       25.2412020912       -3.1123955821  MEMB      274             0.0000000000
     32928       274  POPC      H14X           48.0739329978       24.7822629978       -3.8123105985  MEMB      274             0.0000000000
     32929       274  POPC      H14Y           48.7300962183       26.3486217898       -3.0634289428  MEMB      274             0.0000000000
     32930       274  POPC      C315           48.3266231079       24.6295950404       -1.6846416559  MEMB      274             0.0000000000
     32931       274  POPC      H15X           48.7311933134       25.3025323365       -0.8986387440  MEMB      274             0.0000000000
     32932       274  POPC      H15Y           48.5379994519       23.5468643091       -1.5529775053  MEMB      274             0.0000000000
     32933       274  POPC      C316           46.7713996248       24.8567282894       -1.3903535116  MEMB      274             0.0000000000
     32934       274  POPC      H16X           46.3693632348       24.7888623499       -0.3568732730  MEMB      274             0.0000000000
     32935       274  POPC      H16Y           46.1780669895       24.1089993581       -1.9588410710  MEMB      274             0.0000000000
     32936       274  POPC      H16Z           46.4969789107       25.8869650782       -1.7028069263  MEMB      274             0.0000000000
     32937       275  POPC      N             -25.2863285233       51.8961757357      -20.0643094394  MEMB      275             0.0000000000
     32938       275  POPC      C12           -24.6836261492       50.5974939007      -20.6207910541  MEMB      275             0.0000000000
     32939       275  POPC      H12A          -24.5733094602       50.7573934533      -21.6831762086  MEMB      275             0.0000000000
     32940       275  POPC      H12B          -25.3775108598       49.8363808728      -20.2957817285  MEMB      275             0.0000000000
     32941       275  POPC      C13           -24.3052161996       53.0521040453      -20.1485548084  MEMB      275             0.0000000000
     32942       275  POPC      H13A          -24.1515510255       53.2823926276      -21.1924676959  MEMB      275             0.0000000000
     32943       275  POPC      H13B          -24.6386221357       53.9654007223      -19.6783107244  MEMB      275             0.0000000000
     32944       275  POPC      H13C          -23.3391249615       52.7470579558      -19.7743694064  MEMB      275             0.0000000000
     32945       275  POPC      C14           -26.5341080059       52.3141090455      -20.7933048150  MEMB      275             0.0000000000
     32946       275  POPC      H14A          -27.2824868911       51.5355508085      -20.8065723163  MEMB      275             0.0000000000
     32947       275  POPC      H14B          -27.0312136210       53.2389201459      -20.5403024515  MEMB      275             0.0000000000
     32948       275  POPC      H14C          -26.2723736027       52.4375630227      -21.8338114580  MEMB      275             0.0000000000
     32949       275  POPC      C15           -25.7132356710       51.6163361776      -18.6183928901  MEMB      275             0.0000000000
     32950       275  POPC      H15A          -24.8184968030       51.2612660262      -18.1287322497  MEMB      275             0.0000000000
     32951       275  POPC      H15B          -26.4475054158       50.8243470235      -18.6193392581  MEMB      275             0.0000000000
     32952       275  POPC      H15C          -26.0739597805       52.4950013149      -18.1043638361  MEMB      275             0.0000000000
     32953       275  POPC      C11           -23.3140819050       50.0833919258      -20.0933733937  MEMB      275             0.0000000000
     32954       275  POPC      H11A          -22.4961966116       50.7042894211      -20.5174853262  MEMB      275             0.0000000000
     32955       275  POPC      H11B          -23.1839979356       49.0435654921      -20.4623723669  MEMB      275             0.0000000000
     32956       275  POPC      P             -22.1807361022       50.7987753947      -17.7695349611  MEMB      275             0.0000000000
     32957       275  POPC      O13           -22.7420637588       51.8764553346      -16.9233730037  MEMB      275             0.0000000000
     32958       275  POPC      O14           -21.0282765473       51.0664892414      -18.6142679486  MEMB      275             0.0000000000
     32959       275  POPC      O12           -23.2849756975       50.0458348273      -18.6187288952  MEMB      275             0.0000000000
     32960       275  POPC      O11           -21.7538051816       49.7086386514      -16.7353687951  MEMB      275             0.0000000000
     32961       275  POPC      C1            -20.8648893324       48.7230104276      -17.0458280307  MEMB      275             0.0000000000
     32962       275  POPC      HA            -19.9009909038       49.1989738934      -17.3263271576  MEMB      275             0.0000000000
     32963       275  POPC      HB            -21.1106565348       48.1129736775      -17.9412466080  MEMB      275             0.0000000000
     32964       275  POPC      C2            -20.5966417647       47.8410425820      -15.9025269174  MEMB      275             0.0000000000
     32965       275  POPC      HS            -20.1135367092       46.8931806401      -16.2226653458  MEMB      275             0.0000000000
     32966       275  POPC      O21           -21.8380724898       47.5187222175      -15.2260847153  MEMB      275             0.0000000000
     32967       275  POPC      C21           -22.6678379781       46.6537002392      -15.7346869765  MEMB      275             0.0000000000
     32968       275  POPC      O22           -22.5125680360       45.9152115792      -16.6322359513  MEMB      275             0.0000000000
     32969       275  POPC      C22           -24.0528932184       46.6451734295      -15.0367067968  MEMB      275             0.0000000000
     32970       275  POPC      H2R           -24.1425736513       45.8418937381      -14.2744599563  MEMB      275             0.0000000000
     32971       275  POPC      H2S           -24.8522029509       46.5197448543      -15.7980820976  MEMB      275             0.0000000000
     32972       275  POPC      C3            -19.7028942134       48.6094835476      -14.8702921237  MEMB      275             0.0000000000
     32973       275  POPC      HX            -18.8492014071       49.1083069114      -15.3769528667  MEMB      275             0.0000000000
     32974       275  POPC      HY            -19.2403953481       47.8937592499      -14.1574427991  MEMB      275             0.0000000000
     32975       275  POPC      O31           -20.4661225096       49.5722119010      -14.2052567087  MEMB      275             0.0000000000
     32976       275  POPC      C31           -19.9425123126       50.0519463187      -13.0355986892  MEMB      275             0.0000000000
     32977       275  POPC      O32           -18.8520693064       49.7478004248      -12.5971996926  MEMB      275             0.0000000000
     32978       275  POPC      C32           -20.9345100382       50.9946127528      -12.3112237380  MEMB      275             0.0000000000
     32979       275  POPC      H2X           -21.9792268061       50.6650378901      -12.4963400497  MEMB      275             0.0000000000
     32980       275  POPC      H2Y           -20.9822284364       52.0279965793      -12.7163930518  MEMB      275             0.0000000000
     32981       275  POPC      C23           -24.3011138633       47.8907510769      -14.2122263688  MEMB      275             0.0000000000
     32982       275  POPC      H3R           -24.5164108498       48.7376654109      -14.8983054695  MEMB      275             0.0000000000
     32983       275  POPC      H3S           -23.3597079753       48.1140264079      -13.6661272884  MEMB      275             0.0000000000
     32984       275  POPC      C24           -25.5105895149       47.7883682654      -13.2334706215  MEMB      275             0.0000000000
     32985       275  POPC      H4R           -25.4690207316       46.9372486683      -12.5205972349  MEMB      275             0.0000000000
     32986       275  POPC      H4S           -26.4345191722       47.4440997746      -13.7454808030  MEMB      275             0.0000000000
     32987       275  POPC      C25           -25.9442231559       49.1141776404      -12.5901521889  MEMB      275             0.0000000000
     32988       275  POPC      H5R           -26.9712950378       49.0065941396      -12.1804320849  MEMB      275             0.0000000000
     32989       275  POPC      H5S           -26.0276495532       49.8748123153      -13.3956310027  MEMB      275             0.0000000000
     32990       275  POPC      C26           -24.9816059004       49.6731142138      -11.4478182642  MEMB      275             0.0000000000
     32991       275  POPC      H6R           -25.3697942848       50.6853159446      -11.2047576653  MEMB      275             0.0000000000
     32992       275  POPC      H6S           -23.9522972912       49.7538313745      -11.8580976452  MEMB      275             0.0000000000
     32993       275  POPC      C27           -25.0305377495       48.8261291359      -10.1473081789  MEMB      275             0.0000000000
     32994       275  POPC      H7R           -24.6229808125       47.7995537820      -10.2671475376  MEMB      275             0.0000000000
     32995       275  POPC      H7S           -26.0831478972       48.7746530374       -9.7956217290  MEMB      275             0.0000000000
     32996       275  POPC      C28           -24.1777024549       49.3263179743       -9.0012542454  MEMB      275             0.0000000000
     32997       275  POPC      H8R           -24.4716163244       50.3826179276       -8.8219054510  MEMB      275             0.0000000000
     32998       275  POPC      H8S           -23.1564736555       49.4102065588       -9.4306435638  MEMB      275             0.0000000000
     32999       275  POPC      C29           -24.2931042859       48.5963980207       -7.7036742626  MEMB      275             0.0000000000
     33000       275  POPC      H91           -23.5897127642       47.7768730855       -7.4948215466  MEMB      275             0.0000000000
     33001       275  POPC      C210          -25.1979612104       48.9628222579       -6.7690793707  MEMB      275             0.0000000000
     33002       275  POPC      H101          -25.2376356027       48.3785932885       -5.8378962677  MEMB      275             0.0000000000
     33003       275  POPC      C211          -26.1716815326       50.0858918249       -6.9174978702  MEMB      275             0.0000000000
     33004       275  POPC      H11R          -26.5411904724       50.0562083586       -7.9648293110  MEMB      275             0.0000000000
     33005       275  POPC      H11S          -25.7217559670       51.0866356087       -6.7431420965  MEMB      275             0.0000000000
     33006       275  POPC      C212          -27.2911508652       50.0915678390       -5.8307366191  MEMB      275             0.0000000000
     33007       275  POPC      H12R          -27.3655423329       49.1675828958       -5.2183325244  MEMB      275             0.0000000000
     33008       275  POPC      H12S          -28.2797430666       50.1466699285       -6.3346920579  MEMB      275             0.0000000000
     33009       275  POPC      C213          -27.3471272488       51.3021601605       -4.8734051567  MEMB      275             0.0000000000
     33010       275  POPC      H13R          -28.0335008790       51.0765841549       -4.0294098528  MEMB      275             0.0000000000
     33011       275  POPC      H13S          -27.7902356804       52.0703254330       -5.5426564366  MEMB      275             0.0000000000
     33012       275  POPC      C214          -26.0475310561       51.8439840559       -4.3330273014  MEMB      275             0.0000000000
     33013       275  POPC      H14R          -25.9214948424       52.8829642911       -4.7057957041  MEMB      275             0.0000000000
     33014       275  POPC      H14S          -25.2578692317       51.1152240500       -4.6152760105  MEMB      275             0.0000000000
     33015       275  POPC      C215          -25.9835885468       52.0107492225       -2.8023834828  MEMB      275             0.0000000000
     33016       275  POPC      H15R          -26.7966045044       52.6330196552       -2.3709842180  MEMB      275             0.0000000000
     33017       275  POPC      H15S          -25.0738795693       52.5661523582       -2.4888899891  MEMB      275             0.0000000000
     33018       275  POPC      C216          -26.0567352196       50.6316030020       -2.0609656179  MEMB      275             0.0000000000
     33019       275  POPC      H16R          -25.1009022366       50.1920881945       -2.4180800593  MEMB      275             0.0000000000
     33020       275  POPC      H16S          -26.8889774643       49.9417525504       -2.3174810332  MEMB      275             0.0000000000
     33021       275  POPC      C217          -25.9085483702       50.7743630533       -0.5740750980  MEMB      275             0.0000000000
     33022       275  POPC      H17R          -24.9323234143       51.2559716201       -0.3519061605  MEMB      275             0.0000000000
     33023       275  POPC      H17S          -25.8523240335       49.7794130242       -0.0829181007  MEMB      275             0.0000000000
     33024       275  POPC      C218          -27.0934130536       51.4421825992        0.0612009346  MEMB      275             0.0000000000
     33025       275  POPC      H18R          -26.9589389787       52.5355834108       -0.0827172230  MEMB      275             0.0000000000
     33026       275  POPC      H18S          -27.0762870164       51.1889995393        1.1428317810  MEMB      275             0.0000000000
     33027       275  POPC      H18T          -27.9846685060       51.0377451744       -0.4645515720  MEMB      275             0.0000000000
     33028       275  POPC      C33           -20.6374028143       51.0246613990      -10.8345471552  MEMB      275             0.0000000000
     33029       275  POPC      H3X           -19.6042103548       51.4285821236      -10.7738662174  MEMB      275             0.0000000000
     33030       275  POPC      H3Y           -20.8017870961       50.0132517058      -10.4051885574  MEMB      275             0.0000000000
     33031       275  POPC      C34           -21.5379309647       52.0263239832      -10.1609728600  MEMB      275             0.0000000000
     33032       275  POPC      H4X           -22.5871124249       51.6618800454      -10.1341517343  MEMB      275             0.0000000000
     33033       275  POPC      H4Y           -21.6416342028       52.8929222847      -10.8484127965  MEMB      275             0.0000000000
     33034       275  POPC      C35           -20.9841999284       52.4928689957       -8.7828897365  MEMB      275             0.0000000000
     33035       275  POPC      H5X           -19.9002109714       52.7167581397       -8.8786147775  MEMB      275             0.0000000000
     33036       275  POPC      H5Y           -20.9047480659       51.5839629466       -8.1489355866  MEMB      275             0.0000000000
     33037       275  POPC      C36           -21.8706158677       53.5643120988       -8.0870222364  MEMB      275             0.0000000000
     33038       275  POPC      H6X           -22.8824679976       53.1055396855       -8.0850053215  MEMB      275             0.0000000000
     33039       275  POPC      H6Y           -21.8060073407       54.4559078993       -8.7467219760  MEMB      275             0.0000000000
     33040       275  POPC      C37           -21.4353633018       53.8581754707       -6.6747161518  MEMB      275             0.0000000000
     33041       275  POPC      H7X           -22.2006728279       54.5650862757       -6.2888415517  MEMB      275             0.0000000000
     33042       275  POPC      H7Y           -20.5026429005       54.4608992772       -6.7075443664  MEMB      275             0.0000000000
     33043       275  POPC      C38           -21.4091392695       52.6793046069       -5.5988851274  MEMB      275             0.0000000000
     33044       275  POPC      H8X           -20.7218375568       51.8523365938       -5.8782797453  MEMB      275             0.0000000000
     33045       275  POPC      H8Y           -22.3978941266       52.1761104057       -5.6578813807  MEMB      275             0.0000000000
     33046       275  POPC      C39           -21.2719631510       53.3120250868       -4.2385462557  MEMB      275             0.0000000000
     33047       275  POPC      H9X           -22.1165072449       54.0117347122       -4.0611398570  MEMB      275             0.0000000000
     33048       275  POPC      H9Y           -20.2774358193       53.7664824034       -4.0418108027  MEMB      275             0.0000000000
     33049       275  POPC      C310          -21.5286435425       52.1892548136       -3.1727256717  MEMB      275             0.0000000000
     33050       275  POPC      H10X          -22.4672521589       51.6470471020       -3.4163354026  MEMB      275             0.0000000000
     33051       275  POPC      H10Y          -21.6876045711       52.6408362744       -2.1701647189  MEMB      275             0.0000000000
     33052       275  POPC      C311          -20.3409097625       51.3096086752       -2.9372060934  MEMB      275             0.0000000000
     33053       275  POPC      H11X          -19.5324752598       51.7009156209       -2.2832698188  MEMB      275             0.0000000000
     33054       275  POPC      H11Y          -19.9474353264       51.0727797220       -3.9488442796  MEMB      275             0.0000000000
     33055       275  POPC      C312          -20.6687787705       49.8761043349       -2.3909974689  MEMB      275             0.0000000000
     33056       275  POPC      H12X          -19.7224071508       49.3484007041       -2.1455779758  MEMB      275             0.0000000000
     33057       275  POPC      H12Y          -21.2482497458       49.3521251894       -3.1809216245  MEMB      275             0.0000000000
     33058       275  POPC      C313          -21.4672504499       49.8664624103       -1.1607445500  MEMB      275             0.0000000000
     33059       275  POPC      H13X          -22.3200768160       50.5743047835       -1.2379928595  MEMB      275             0.0000000000
     33060       275  POPC      H13Y          -20.7521169069       50.1814022597       -0.3709858293  MEMB      275             0.0000000000
     33061       275  POPC      C314          -21.8575037474       48.4848767004       -0.5400041170  MEMB      275             0.0000000000
     33062       275  POPC      H14X          -22.6761200739       48.2530538262       -1.2544600648  MEMB      275             0.0000000000
     33063       275  POPC      H14Y          -22.3866138585       48.5130631400        0.4365045533  MEMB      275             0.0000000000
     33064       275  POPC      C315          -20.8565841130       47.3572815889       -0.7599254103  MEMB      275             0.0000000000
     33065       275  POPC      H15X          -19.8847245547       47.6148617616       -0.2872071717  MEMB      275             0.0000000000
     33066       275  POPC      H15Y          -20.6576259461       47.0572450911       -1.8109803953  MEMB      275             0.0000000000
     33067       275  POPC      C316          -21.2882816033       46.0875372018       -0.0035927184  MEMB      275             0.0000000000
     33068       275  POPC      H16X          -21.2625892820       46.3543332495        1.0745904767  MEMB      275             0.0000000000
     33069       275  POPC      H16Y          -20.6042323007       45.2292655924       -0.1761238104  MEMB      275             0.0000000000
     33070       275  POPC      H16Z          -22.3448813557       45.7441531140       -0.0012831056  MEMB      275             0.0000000000
     33071       276  POPC      N              61.1081758982       12.1069519484      -18.3883760571  MEMB      276             0.0000000000
     33072       276  POPC      C12            60.1683261009       13.1942347870      -17.9356617270  MEMB      276             0.0000000000
     33073       276  POPC      H12A           60.6822540514       13.8962933697      -17.2958243732  MEMB      276             0.0000000000
     33074       276  POPC      H12B           59.3949241260       12.6786339876      -17.3857478951  MEMB      276             0.0000000000
     33075       276  POPC      C13            62.2880837635       12.7078645286      -19.0245576076  MEMB      276             0.0000000000
     33076       276  POPC      H13A           62.7689846352       11.7629857456      -19.2303197993  MEMB      276             0.0000000000
     33077       276  POPC      H13B           61.9820691611       13.1639447640      -19.9544747542  MEMB      276             0.0000000000
     33078       276  POPC      H13C           62.8535268176       13.2862638973      -18.3089261628  MEMB      276             0.0000000000
     33079       276  POPC      C14            61.5243002565       11.0932981712      -17.3145350115  MEMB      276             0.0000000000
     33080       276  POPC      H14A           62.0335245755       11.7294633345      -16.6057442851  MEMB      276             0.0000000000
     33081       276  POPC      H14B           60.6995711786       10.6492273394      -16.7769263200  MEMB      276             0.0000000000
     33082       276  POPC      H14C           62.1817718935       10.3601795877      -17.7580080515  MEMB      276             0.0000000000
     33083       276  POPC      C15            60.4251586643       11.2817919143      -19.4612282120  MEMB      276             0.0000000000
     33084       276  POPC      H15A           59.6295250561       10.7247328104      -18.9889439377  MEMB      276             0.0000000000
     33085       276  POPC      H15B           61.2034265620       10.5995588931      -19.7698657731  MEMB      276             0.0000000000
     33086       276  POPC      H15C           60.0595935021       11.8713695729      -20.2889724026  MEMB      276             0.0000000000
     33087       276  POPC      C11            59.4862202963       14.1666785129      -18.9408435054  MEMB      276             0.0000000000
     33088       276  POPC      H11A           58.9643550591       14.9389971541      -18.3362762504  MEMB      276             0.0000000000
     33089       276  POPC      H11B           58.7221639703       13.5119302902      -19.4118465638  MEMB      276             0.0000000000
     33090       276  POPC      P              60.9052510409       16.2860163935      -19.6760335117  MEMB      276             0.0000000000
     33091       276  POPC      O13            59.9840616122       17.3641240285      -20.1304062204  MEMB      276             0.0000000000
     33092       276  POPC      O14            62.2851970846       16.4450993671      -20.1618369772  MEMB      276             0.0000000000
     33093       276  POPC      O12            60.3760567749       14.7437932860      -19.8851955674  MEMB      276             0.0000000000
     33094       276  POPC      O11            61.0551371385       16.3198628894      -18.0813255987  MEMB      276             0.0000000000
     33095       276  POPC      C1             60.4960871927       17.3236849511      -17.3205914839  MEMB      276             0.0000000000
     33096       276  POPC      HA             59.5846743310       17.6755789018      -17.8495699518  MEMB      276             0.0000000000
     33097       276  POPC      HB             61.2335931356       18.1445918533      -17.1920693969  MEMB      276             0.0000000000
     33098       276  POPC      C2             60.1349634339       16.8278345300      -15.8435198519  MEMB      276             0.0000000000
     33099       276  POPC      HS             60.3645579342       17.6197769547      -15.0989162807  MEMB      276             0.0000000000
     33100       276  POPC      O21            60.9495700233       15.6453977518      -15.5155836528  MEMB      276             0.0000000000
     33101       276  POPC      C21            62.1621915519       15.8705605463      -15.0409086185  MEMB      276             0.0000000000
     33102       276  POPC      O22            62.7757402651       16.9444863630      -15.1084540936  MEMB      276             0.0000000000
     33103       276  POPC      C22            62.6270788753       14.5639152639      -14.4297712333  MEMB      276             0.0000000000
     33104       276  POPC      H2R            62.3780660828       13.7780479291      -15.1745708036  MEMB      276             0.0000000000
     33105       276  POPC      H2S            61.9663501133       14.4644835237      -13.5421497946  MEMB      276             0.0000000000
     33106       276  POPC      C3             58.6555267086       16.4926943880      -15.6167189924  MEMB      276             0.0000000000
     33107       276  POPC      HX             58.4402524574       15.6918312231      -16.3560405406  MEMB      276             0.0000000000
     33108       276  POPC      HY             58.0032535819       17.3632382677      -15.8425821872  MEMB      276             0.0000000000
     33109       276  POPC      O31            58.4659318674       16.1452959936      -14.2546975744  MEMB      276             0.0000000000
     33110       276  POPC      C31            58.6544805541       14.8458457434      -14.0001300664  MEMB      276             0.0000000000
     33111       276  POPC      O32            59.0059771032       13.9469709932      -14.8148815794  MEMB      276             0.0000000000
     33112       276  POPC      C32            58.2017845573       14.5419667554      -12.5027548308  MEMB      276             0.0000000000
     33113       276  POPC      H2X            57.3720911178       13.8338994091      -12.7138724169  MEMB      276             0.0000000000
     33114       276  POPC      H2Y            57.9830726459       15.4880531213      -11.9629338636  MEMB      276             0.0000000000
     33115       276  POPC      C23            64.1528191320       14.6110582961      -14.2301029045  MEMB      276             0.0000000000
     33116       276  POPC      H3R            64.4399288218       15.3914093806      -13.4932576695  MEMB      276             0.0000000000
     33117       276  POPC      H3S            64.6981604363       14.7486754672      -15.1882186919  MEMB      276             0.0000000000
     33118       276  POPC      C24            64.6821529796       13.3350430030      -13.5775850763  MEMB      276             0.0000000000
     33119       276  POPC      H4R            65.7928973038       13.3462631432      -13.5986226151  MEMB      276             0.0000000000
     33120       276  POPC      H4S            64.4003608773       12.4167689942      -14.1358744454  MEMB      276             0.0000000000
     33121       276  POPC      C25            64.3362716626       13.0577937824      -12.1146299524  MEMB      276             0.0000000000
     33122       276  POPC      H5R            63.2518279897       13.2876194499      -12.0405813441  MEMB      276             0.0000000000
     33123       276  POPC      H5S            64.8130446868       13.8518522657      -11.5010504948  MEMB      276             0.0000000000
     33124       276  POPC      C26            64.6086140272       11.6996503708      -11.4545689963  MEMB      276             0.0000000000
     33125       276  POPC      H6R            65.6989194545       11.4871894322      -11.4749403697  MEMB      276             0.0000000000
     33126       276  POPC      H6S            64.1874959623       10.8860206434      -12.0830489464  MEMB      276             0.0000000000
     33127       276  POPC      C27            64.0235948640       11.6637308584      -10.0686229989  MEMB      276             0.0000000000
     33128       276  POPC      H7R            64.1654255957       10.6969760711       -9.5398594824  MEMB      276             0.0000000000
     33129       276  POPC      H7S            62.9269992170       11.7314120709      -10.2336031787  MEMB      276             0.0000000000
     33130       276  POPC      C28            64.4603781001       12.7799331170       -9.1274002704  MEMB      276             0.0000000000
     33131       276  POPC      H8R            63.7957085350       12.6648461777       -8.2446253427  MEMB      276             0.0000000000
     33132       276  POPC      H8S            64.1508985887       13.7800201807       -9.4993791658  MEMB      276             0.0000000000
     33133       276  POPC      C29            65.8951955265       12.8182699767       -8.7414348614  MEMB      276             0.0000000000
     33134       276  POPC      H91            66.5945946380       12.9380543405       -9.5819666444  MEMB      276             0.0000000000
     33135       276  POPC      C210           66.4804451992       12.9156053266       -7.5211896725  MEMB      276             0.0000000000
     33136       276  POPC      H101           67.5721655012       13.0359559272       -7.4606710430  MEMB      276             0.0000000000
     33137       276  POPC      C211           65.7191040980       13.0210809504       -6.2417139169  MEMB      276             0.0000000000
     33138       276  POPC      H11R           64.8925914195       13.7488794058       -6.3883670148  MEMB      276             0.0000000000
     33139       276  POPC      H11S           66.4319944212       13.5155924243       -5.5477633726  MEMB      276             0.0000000000
     33140       276  POPC      C212           65.1236071729       11.7631996713       -5.4969235317  MEMB      276             0.0000000000
     33141       276  POPC      H12R           65.3215142702       12.0810528219       -4.4509208744  MEMB      276             0.0000000000
     33142       276  POPC      H12S           65.6363404985       10.7843365934       -5.6120433780  MEMB      276             0.0000000000
     33143       276  POPC      C213           63.6481602537       11.6392987039       -5.8546780325  MEMB      276             0.0000000000
     33144       276  POPC      H13R           63.5258487208       11.2760610227       -6.8974713206  MEMB      276             0.0000000000
     33145       276  POPC      H13S           63.1430343740       12.6282337065       -5.8889754565  MEMB      276             0.0000000000
     33146       276  POPC      C214           62.8325189428       10.6617500031       -4.9925600135  MEMB      276             0.0000000000
     33147       276  POPC      H14R           63.2179273825        9.6207892406       -4.9458454351  MEMB      276             0.0000000000
     33148       276  POPC      H14S           61.8556430225       10.5011798270       -5.4967936419  MEMB      276             0.0000000000
     33149       276  POPC      C215           62.5958601654       11.0629881594       -3.5493818560  MEMB      276             0.0000000000
     33150       276  POPC      H15R           63.5572202029       10.8586453535       -3.0313542737  MEMB      276             0.0000000000
     33151       276  POPC      H15S           61.7730200344       10.5243213942       -3.0325702854  MEMB      276             0.0000000000
     33152       276  POPC      C216           62.3314917132       12.5339176307       -3.4776416867  MEMB      276             0.0000000000
     33153       276  POPC      H16R           61.5642640947       12.8626253211       -4.2108776491  MEMB      276             0.0000000000
     33154       276  POPC      H16S           63.2752243244       13.0775222664       -3.6971498843  MEMB      276             0.0000000000
     33155       276  POPC      C217           61.9655945003       13.0296925687       -2.0971195569  MEMB      276             0.0000000000
     33156       276  POPC      H17R           61.8787747353       14.1370535262       -2.1202429326  MEMB      276             0.0000000000
     33157       276  POPC      H17S           62.8465661998       12.8299116145       -1.4503592117  MEMB      276             0.0000000000
     33158       276  POPC      C218           60.6742107034       12.4015328588       -1.4299719055  MEMB      276             0.0000000000
     33159       276  POPC      H18R           59.7612665030       12.6376163908       -2.0174397326  MEMB      276             0.0000000000
     33160       276  POPC      H18S           60.5487437993       12.8391792453       -0.4165400488  MEMB      276             0.0000000000
     33161       276  POPC      H18T           60.7658977220       11.3083315261       -1.2544004830  MEMB      276             0.0000000000
     33162       276  POPC      C33            59.3270299675       13.7463004716      -11.7663240827  MEMB      276             0.0000000000
     33163       276  POPC      H3X            60.0026416855       14.5246344221      -11.3515156979  MEMB      276             0.0000000000
     33164       276  POPC      H3Y            59.9409508100       13.0924645760      -12.4220079366  MEMB      276             0.0000000000
     33165       276  POPC      C34            58.7878855889       12.9131569933      -10.6129959961  MEMB      276             0.0000000000
     33166       276  POPC      H4X            59.6716418426       12.6745567938       -9.9834203482  MEMB      276             0.0000000000
     33167       276  POPC      H4Y            58.1863978670       12.0236604581      -10.8981794463  MEMB      276             0.0000000000
     33168       276  POPC      C35            58.0070515473       13.7636858467       -9.6479462303  MEMB      276             0.0000000000
     33169       276  POPC      H5X            57.5287258977       13.0790403833       -8.9152891834  MEMB      276             0.0000000000
     33170       276  POPC      H5Y            57.2014803405       14.2869660915      -10.2061164150  MEMB      276             0.0000000000
     33171       276  POPC      C36            58.7559610667       14.9207679856       -8.9949816807  MEMB      276             0.0000000000
     33172       276  POPC      H6X            57.9946711858       15.6786002793       -8.7113465476  MEMB      276             0.0000000000
     33173       276  POPC      H6Y            59.6039483325       15.3262069324       -9.5873142069  MEMB      276             0.0000000000
     33174       276  POPC      C37            59.5206752376       14.5185757017       -7.6625471731  MEMB      276             0.0000000000
     33175       276  POPC      H7X            60.5338943154       14.1366583018       -7.9112378950  MEMB      276             0.0000000000
     33176       276  POPC      H7Y            58.9639839576       13.7187565741       -7.1289696223  MEMB      276             0.0000000000
     33177       276  POPC      C38            59.8176899077       15.8576045761       -6.9421679133  MEMB      276             0.0000000000
     33178       276  POPC      H8X            58.8622406216       16.3034754702       -6.5919727430  MEMB      276             0.0000000000
     33179       276  POPC      H8Y            60.2572719452       16.4773010351       -7.7527632193  MEMB      276             0.0000000000
     33180       276  POPC      C39            60.9587455652       15.8734965799       -5.8482939672  MEMB      276             0.0000000000
     33181       276  POPC      H9X            61.7462298277       15.2103796076       -6.2659849112  MEMB      276             0.0000000000
     33182       276  POPC      H9Y            60.6350621029       15.5100345498       -4.8495723065  MEMB      276             0.0000000000
     33183       276  POPC      C310           61.5554187834       17.2781960252       -5.6052040694  MEMB      276             0.0000000000
     33184       276  POPC      H10X           61.8850176265       17.6762264790       -6.5886967892  MEMB      276             0.0000000000
     33185       276  POPC      H10Y           62.4261916774       17.2207185210       -4.9176202012  MEMB      276             0.0000000000
     33186       276  POPC      C311           60.4844650802       18.2366132725       -4.9290537579  MEMB      276             0.0000000000
     33187       276  POPC      H11X           59.7081895470       18.2449418165       -5.7238165403  MEMB      276             0.0000000000
     33188       276  POPC      H11Y           60.8676169930       19.2744266014       -4.8267857005  MEMB      276             0.0000000000
     33189       276  POPC      C312           59.7216442884       17.7437728821       -3.6179400765  MEMB      276             0.0000000000
     33190       276  POPC      H12X           59.0024855425       16.9499451177       -3.9128455560  MEMB      276             0.0000000000
     33191       276  POPC      H12Y           59.3404979367       18.7367587735       -3.2969617056  MEMB      276             0.0000000000
     33192       276  POPC      C313           60.5676993741       17.1095140384       -2.4873885814  MEMB      276             0.0000000000
     33193       276  POPC      H13X           61.2119385218       17.9120125306       -2.0687328930  MEMB      276             0.0000000000
     33194       276  POPC      H13Y           61.2410980090       16.3616911790       -2.9581498232  MEMB      276             0.0000000000
     33195       276  POPC      C314           59.6489836073       16.3515762206       -1.4719011109  MEMB      276             0.0000000000
     33196       276  POPC      H14X           60.2267786632       15.9538706656       -0.6103311204  MEMB      276             0.0000000000
     33197       276  POPC      H14Y           59.2319877869       15.5112486186       -2.0671206313  MEMB      276             0.0000000000
     33198       276  POPC      C315           58.4614000512       17.1661399087       -0.9838301460  MEMB      276             0.0000000000
     33199       276  POPC      H15X           57.7211737489       17.3029902693       -1.8009341213  MEMB      276             0.0000000000
     33200       276  POPC      H15Y           58.6920531606       18.2102505981       -0.6822458078  MEMB      276             0.0000000000
     33201       276  POPC      C316           57.6886408585       16.3341806431        0.0671352852  MEMB      276             0.0000000000
     33202       276  POPC      H16X           58.3024035729       16.1788308990        0.9800879697  MEMB      276             0.0000000000
     33203       276  POPC      H16Y           57.5054613162       15.3225075299       -0.3539142700  MEMB      276             0.0000000000
     33204       276  POPC      H16Z           56.7080439301       16.7394772222        0.3965079064  MEMB      276             0.0000000000
     33205       277  POPC      N              30.2159376096       49.3889385646      -18.2627447852  MEMB      277             0.0000000000
     33206       277  POPC      C12            30.9432791682       48.2617686545      -17.5080508672  MEMB      277             0.0000000000
     33207       277  POPC      H12A           30.2850457515       47.9544591810      -16.7088701068  MEMB      277             0.0000000000
     33208       277  POPC      H12B           31.7298433680       48.7200531455      -16.9269382352  MEMB      277             0.0000000000
     33209       277  POPC      C13            29.5846625255       50.4128010814      -17.3695054163  MEMB      277             0.0000000000
     33210       277  POPC      H13A           30.3860766970       51.0255429850      -16.9839111200  MEMB      277             0.0000000000
     33211       277  POPC      H13B           28.9515914026       51.0092349998      -18.0097298965  MEMB      277             0.0000000000
     33212       277  POPC      H13C           29.0048132361       50.0212113494      -16.5468072459  MEMB      277             0.0000000000
     33213       277  POPC      C14            31.1806378450       50.1431368505      -19.1561802499  MEMB      277             0.0000000000
     33214       277  POPC      H14A           30.6417514477       50.9083536728      -19.6951094045  MEMB      277             0.0000000000
     33215       277  POPC      H14B           31.9820288406       50.5115723040      -18.5329405313  MEMB      277             0.0000000000
     33216       277  POPC      H14C           31.5585649267       49.4403968065      -19.8840041468  MEMB      277             0.0000000000
     33217       277  POPC      C15            29.1415540251       48.8404012010      -19.2484869095  MEMB      277             0.0000000000
     33218       277  POPC      H15A           28.3861363277       48.4055819031      -18.6107750166  MEMB      277             0.0000000000
     33219       277  POPC      H15B           29.5275799131       48.1210560558      -19.9555417390  MEMB      277             0.0000000000
     33220       277  POPC      H15C           28.6253629949       49.6525532767      -19.7387479185  MEMB      277             0.0000000000
     33221       277  POPC      C11            31.4788825012       47.0244190492      -18.3095976530  MEMB      277             0.0000000000
     33222       277  POPC      H11A           30.6181218949       46.4249758224      -18.6757670113  MEMB      277             0.0000000000
     33223       277  POPC      H11B           32.0480862859       46.4709827113      -17.5323998776  MEMB      277             0.0000000000
     33224       277  POPC      P              33.5727987304       46.6251226031      -19.9460759523  MEMB      277             0.0000000000
     33225       277  POPC      O13            34.4493950818       47.4149827898      -20.7824567215  MEMB      277             0.0000000000
     33226       277  POPC      O14            33.0971969209       45.3227639292      -20.4380460613  MEMB      277             0.0000000000
     33227       277  POPC      O12            32.3280765329       47.4472461873      -19.3857023113  MEMB      277             0.0000000000
     33228       277  POPC      O11            34.4182869576       46.2642316856      -18.5931531046  MEMB      277             0.0000000000
     33229       277  POPC      C1             35.4855848110       47.1590766292      -18.2226523105  MEMB      277             0.0000000000
     33230       277  POPC      HA             34.9845896523       48.1404033537      -18.0800953015  MEMB      277             0.0000000000
     33231       277  POPC      HB             36.2889876287       47.0959354441      -18.9874255491  MEMB      277             0.0000000000
     33232       277  POPC      C2             36.1161239062       46.9175126808      -16.8185161046  MEMB      277             0.0000000000
     33233       277  POPC      HS             36.9164086961       46.1492384929      -16.8786831321  MEMB      277             0.0000000000
     33234       277  POPC      O21            35.1159136210       46.3397702271      -15.9645038591  MEMB      277             0.0000000000
     33235       277  POPC      C21            35.3599153925       45.4495630944      -14.9812284509  MEMB      277             0.0000000000
     33236       277  POPC      O22            36.4891459341       45.0609985841      -14.6573782459  MEMB      277             0.0000000000
     33237       277  POPC      C22            34.0272640423       45.0386030955      -14.3870115788  MEMB      277             0.0000000000
     33238       277  POPC      H2R            33.7550342134       44.0578013512      -14.8322531907  MEMB      277             0.0000000000
     33239       277  POPC      H2S            33.3022086789       45.8214696867      -14.6964231963  MEMB      277             0.0000000000
     33240       277  POPC      C3             36.7222347895       48.1643912840      -16.1725911517  MEMB      277             0.0000000000
     33241       277  POPC      HX             37.4157287357       48.5556994919      -16.9473589984  MEMB      277             0.0000000000
     33242       277  POPC      HY             37.2295161751       47.7600110341      -15.2706693299  MEMB      277             0.0000000000
     33243       277  POPC      O31            35.7458980651       49.1371787692      -15.9644692358  MEMB      277             0.0000000000
     33244       277  POPC      C31            35.5107207947       49.4908508529      -14.7043768112  MEMB      277             0.0000000000
     33245       277  POPC      O32            35.8181896001       48.8492469623      -13.7226471322  MEMB      277             0.0000000000
     33246       277  POPC      C32            34.4366685396       50.5694467790      -14.6963173958  MEMB      277             0.0000000000
     33247       277  POPC      H2X            33.9412672897       50.5224831095      -15.6896418162  MEMB      277             0.0000000000
     33248       277  POPC      H2Y            34.9623049710       51.5473960110      -14.6557930709  MEMB      277             0.0000000000
     33249       277  POPC      C23            34.2673305567       45.0347660662      -12.8625879848  MEMB      277             0.0000000000
     33250       277  POPC      H3R            34.9793330750       45.8056270223      -12.4976950345  MEMB      277             0.0000000000
     33251       277  POPC      H3S            34.6653163509       44.0429613409      -12.5588586706  MEMB      277             0.0000000000
     33252       277  POPC      C24            32.9445670522       45.3308452679      -12.0867125062  MEMB      277             0.0000000000
     33253       277  POPC      H4R            32.5045540455       46.2642019784      -12.4984830591  MEMB      277             0.0000000000
     33254       277  POPC      H4S            33.1643693408       45.7326126277      -11.0744917323  MEMB      277             0.0000000000
     33255       277  POPC      C25            31.9299604800       44.1987274124      -12.2702285012  MEMB      277             0.0000000000
     33256       277  POPC      H5R            32.3155196039       43.4809908457      -11.5149013888  MEMB      277             0.0000000000
     33257       277  POPC      H5S            31.8160309581       43.6492310638      -13.2290793753  MEMB      277             0.0000000000
     33258       277  POPC      C26            30.5497043418       44.6535841959      -11.7768898122  MEMB      277             0.0000000000
     33259       277  POPC      H6R            30.5349186421       45.2799460803      -10.8594082780  MEMB      277             0.0000000000
     33260       277  POPC      H6S            29.9919836894       43.8173297105      -11.3036590600  MEMB      277             0.0000000000
     33261       277  POPC      C27            29.7533758312       45.5010977517      -12.7888194741  MEMB      277             0.0000000000
     33262       277  POPC      H7R            28.8457383295       44.9327212460      -13.0845610392  MEMB      277             0.0000000000
     33263       277  POPC      H7S            30.2813507038       45.6199688981      -13.7590943095  MEMB      277             0.0000000000
     33264       277  POPC      C28            29.3057170523       46.8524694589      -12.2133583374  MEMB      277             0.0000000000
     33265       277  POPC      H8R            28.8804267034       46.6350492910      -11.2102743663  MEMB      277             0.0000000000
     33266       277  POPC      H8S            28.4032154578       47.1312849485      -12.7982289134  MEMB      277             0.0000000000
     33267       277  POPC      C29            30.2118566558       48.0652797572      -12.2519547871  MEMB      277             0.0000000000
     33268       277  POPC      H91            30.4807888550       48.3318851801      -13.2847167877  MEMB      277             0.0000000000
     33269       277  POPC      C210           30.6811751730       48.7851987142      -11.2419022707  MEMB      277             0.0000000000
     33270       277  POPC      H101           31.4535947160       49.5539589678      -11.3914872079  MEMB      277             0.0000000000
     33271       277  POPC      C211           30.4029785408       48.4873811961       -9.8009388677  MEMB      277             0.0000000000
     33272       277  POPC      H11R           31.1367376098       47.7091393472       -9.5005086865  MEMB      277             0.0000000000
     33273       277  POPC      H11S           29.3876533996       48.0701830261       -9.6295280053  MEMB      277             0.0000000000
     33274       277  POPC      C212           30.5219136035       49.6894235722       -8.8963071995  MEMB      277             0.0000000000
     33275       277  POPC      H12R           29.7277184578       50.4341820160       -9.1174633503  MEMB      277             0.0000000000
     33276       277  POPC      H12S           31.5256569179       50.1614268830       -8.8327966795  MEMB      277             0.0000000000
     33277       277  POPC      C213           30.3608194920       49.2902169017       -7.4144957928  MEMB      277             0.0000000000
     33278       277  POPC      H13R           31.0700471249       48.5034453269       -7.0793721930  MEMB      277             0.0000000000
     33279       277  POPC      H13S           29.3490425840       48.8417764030       -7.3168751963  MEMB      277             0.0000000000
     33280       277  POPC      C214           30.6112805056       50.4951283490       -6.4639379605  MEMB      277             0.0000000000
     33281       277  POPC      H14R           29.9707104879       51.3777837210       -6.6758589360  MEMB      277             0.0000000000
     33282       277  POPC      H14S           31.6964869187       50.7057639243       -6.5747573576  MEMB      277             0.0000000000
     33283       277  POPC      C215           30.2416430873       50.2131099208       -4.9516669351  MEMB      277             0.0000000000
     33284       277  POPC      H15R           29.1834013478       49.8889811760       -5.0485452899  MEMB      277             0.0000000000
     33285       277  POPC      H15S           30.2416081706       51.2465327483       -4.5437963907  MEMB      277             0.0000000000
     33286       277  POPC      C216           31.1354111593       49.2423985908       -4.1665279642  MEMB      277             0.0000000000
     33287       277  POPC      H16R           32.1270698615       49.7264010861       -4.0373951151  MEMB      277             0.0000000000
     33288       277  POPC      H16S           31.2662893470       48.3810698656       -4.8559513235  MEMB      277             0.0000000000
     33289       277  POPC      C217           30.5346916463       48.7895595949       -2.8440993291  MEMB      277             0.0000000000
     33290       277  POPC      H17R           31.2321802491       48.0777765179       -2.3529836200  MEMB      277             0.0000000000
     33291       277  POPC      H17S           29.6622839542       48.1666213027       -3.1359446830  MEMB      277             0.0000000000
     33292       277  POPC      C218           29.9189945830       49.8735333653       -1.8836402326  MEMB      277             0.0000000000
     33293       277  POPC      H18R           29.7764156351       49.4093047527       -0.8843990278  MEMB      277             0.0000000000
     33294       277  POPC      H18S           28.9917927259       50.3253064050       -2.2965799365  MEMB      277             0.0000000000
     33295       277  POPC      H18T           30.6858400298       50.6523071559       -1.6841913747  MEMB      277             0.0000000000
     33296       277  POPC      C33            33.2980456239       50.4857474097      -13.6812070479  MEMB      277             0.0000000000
     33297       277  POPC      H3X            33.2700370142       49.4527444394      -13.2732349797  MEMB      277             0.0000000000
     33298       277  POPC      H3Y            32.2825691334       50.6478741335      -14.1017347030  MEMB      277             0.0000000000
     33299       277  POPC      C34            33.2806972412       51.6291909289      -12.6583672017  MEMB      277             0.0000000000
     33300       277  POPC      H4X            32.3495591186       51.6629881262      -12.0532553046  MEMB      277             0.0000000000
     33301       277  POPC      H4Y            33.2601116587       52.5972362320      -13.2031476508  MEMB      277             0.0000000000
     33302       277  POPC      C35            34.5198326797       51.7076220168      -11.7065398682  MEMB      277             0.0000000000
     33303       277  POPC      H5X            34.4641136782       52.7442399795      -11.3107625292  MEMB      277             0.0000000000
     33304       277  POPC      H5Y            35.5129848959       51.5854053618      -12.1892743165  MEMB      277             0.0000000000
     33305       277  POPC      C36            34.5553762277       50.7276173429      -10.4781454869  MEMB      277             0.0000000000
     33306       277  POPC      H6X            33.5244991848       50.6862090838      -10.0659579419  MEMB      277             0.0000000000
     33307       277  POPC      H6Y            35.1988686164       51.2663766516       -9.7501509004  MEMB      277             0.0000000000
     33308       277  POPC      C37            35.2393400782       49.3598472061      -10.7831044697  MEMB      277             0.0000000000
     33309       277  POPC      H7X            36.2253292745       49.6186808744      -11.2248637674  MEMB      277             0.0000000000
     33310       277  POPC      H7Y            34.5473221128       48.7712924466      -11.4226633244  MEMB      277             0.0000000000
     33311       277  POPC      C38            35.4227096442       48.5406791489       -9.4867256298  MEMB      277             0.0000000000
     33312       277  POPC      H8X            35.9033168432       49.2041084118       -8.7362590535  MEMB      277             0.0000000000
     33313       277  POPC      H8Y            36.0224987215       47.6526784072       -9.7800320854  MEMB      277             0.0000000000
     33314       277  POPC      C39            34.0569317004       48.0471866987       -8.9625831984  MEMB      277             0.0000000000
     33315       277  POPC      H9X            33.5592163858       47.4772415156       -9.7760711106  MEMB      277             0.0000000000
     33316       277  POPC      H9Y            33.4012800023       48.8435070333       -8.5498897753  MEMB      277             0.0000000000
     33317       277  POPC      C310           34.1728201929       47.0303003695       -7.8243006064  MEMB      277             0.0000000000
     33318       277  POPC      H10X           34.4449478675       47.4991007156       -6.8545097861  MEMB      277             0.0000000000
     33319       277  POPC      H10Y           34.9868934597       46.3652025012       -8.1838148293  MEMB      277             0.0000000000
     33320       277  POPC      C311           33.0714881119       45.9921553567       -7.7257274142  MEMB      277             0.0000000000
     33321       277  POPC      H11X           32.8768339015       45.4832425122       -8.6939410192  MEMB      277             0.0000000000
     33322       277  POPC      H11Y           32.1280657171       46.5188943378       -7.4672292873  MEMB      277             0.0000000000
     33323       277  POPC      C312           33.3158439578       44.9377550097       -6.6213143072  MEMB      277             0.0000000000
     33324       277  POPC      H12X           34.3109783900       44.5802355168       -6.9622076851  MEMB      277             0.0000000000
     33325       277  POPC      H12Y           32.5518421245       44.1402370121       -6.7420908700  MEMB      277             0.0000000000
     33326       277  POPC      C313           33.2419628791       45.4143609294       -5.1946082027  MEMB      277             0.0000000000
     33327       277  POPC      H13X           32.2236696284       45.8395322390       -5.0656539393  MEMB      277             0.0000000000
     33328       277  POPC      H13Y           34.0218193214       46.1984937644       -5.0883970435  MEMB      277             0.0000000000
     33329       277  POPC      C314           33.5563000588       44.3216384275       -4.1408834707  MEMB      277             0.0000000000
     33330       277  POPC      H14X           33.1595709036       43.3636664895       -4.5399029458  MEMB      277             0.0000000000
     33331       277  POPC      H14Y           32.9486298879       44.5462736934       -3.2383336871  MEMB      277             0.0000000000
     33332       277  POPC      C315           35.0185620398       44.1980390970       -3.7001653283  MEMB      277             0.0000000000
     33333       277  POPC      H15X           35.7269905846       44.2304473289       -4.5553846760  MEMB      277             0.0000000000
     33334       277  POPC      H15Y           35.0765014337       43.2517907088       -3.1208749995  MEMB      277             0.0000000000
     33335       277  POPC      C316           35.4901711323       45.3375949897       -2.8473664099  MEMB      277             0.0000000000
     33336       277  POPC      H16X           34.8603876255       45.5822678286       -1.9654202765  MEMB      277             0.0000000000
     33337       277  POPC      H16Y           35.7245010538       46.1864373664       -3.5247709551  MEMB      277             0.0000000000
     33338       277  POPC      H16Z           36.4158548113       45.0379950553       -2.3110164392  MEMB      277             0.0000000000
     33339       278  POPC      N             -57.1852096932      -16.4240862127      -19.7114479945  MEMB      278             0.0000000000
     33340       278  POPC      C12           -56.4749555373      -16.2406357402      -18.3754507899  MEMB      278             0.0000000000
     33341       278  POPC      H12A          -57.2437787901      -15.8052386924      -17.7543709427  MEMB      278             0.0000000000
     33342       278  POPC      H12B          -55.7593811856      -15.4482434826      -18.5381404310  MEMB      278             0.0000000000
     33343       278  POPC      C13           -56.3391500042      -16.6580808648      -20.9142677267  MEMB      278             0.0000000000
     33344       278  POPC      H13A          -56.1596776066      -15.6342542649      -21.2074718368  MEMB      278             0.0000000000
     33345       278  POPC      H13B          -55.4037992244      -17.1720641582      -20.7489194896  MEMB      278             0.0000000000
     33346       278  POPC      H13C          -56.8998594398      -17.0727787051      -21.7389074364  MEMB      278             0.0000000000
     33347       278  POPC      C14           -58.2393955559      -17.5692650731      -19.5978952470  MEMB      278             0.0000000000
     33348       278  POPC      H14A          -58.8566240257      -17.4390905164      -20.4745271061  MEMB      278             0.0000000000
     33349       278  POPC      H14B          -57.7794848293      -18.5397400793      -19.7121775868  MEMB      278             0.0000000000
     33350       278  POPC      H14C          -58.8640983677      -17.5387004476      -18.7174338538  MEMB      278             0.0000000000
     33351       278  POPC      C15           -58.0079907015      -15.0501907982      -19.8821830611  MEMB      278             0.0000000000
     33352       278  POPC      H15A          -58.5572911137      -15.0968235937      -20.8108887840  MEMB      278             0.0000000000
     33353       278  POPC      H15B          -57.2679459050      -14.2725402762      -20.0004766404  MEMB      278             0.0000000000
     33354       278  POPC      H15C          -58.6982262920      -14.7216551433      -19.1192681562  MEMB      278             0.0000000000
     33355       278  POPC      C11           -55.9049677260      -17.5038248539      -17.7475474052  MEMB      278             0.0000000000
     33356       278  POPC      H11A          -56.8463924902      -18.0898503765      -17.6796169620  MEMB      278             0.0000000000
     33357       278  POPC      H11B          -55.6447609404      -17.3696120104      -16.6758196440  MEMB      278             0.0000000000
     33358       278  POPC      P             -53.5095951023      -17.6300537598      -18.6146564442  MEMB      278             0.0000000000
     33359       278  POPC      O13           -53.0457756909      -17.5912902149      -19.9584559118  MEMB      278             0.0000000000
     33360       278  POPC      O14           -52.7151642420      -18.3692450462      -17.5930007199  MEMB      278             0.0000000000
     33361       278  POPC      O12           -55.0049285209      -18.1619706769      -18.5565236137  MEMB      278             0.0000000000
     33362       278  POPC      O11           -53.6559287452      -16.0988407070      -18.0485711059  MEMB      278             0.0000000000
     33363       278  POPC      C1            -52.8278335185      -15.1566552607      -18.7352721651  MEMB      278             0.0000000000
     33364       278  POPC      HA            -53.3979054047      -14.8944084709      -19.6520958987  MEMB      278             0.0000000000
     33365       278  POPC      HB            -51.8543281821      -15.5614757367      -19.0855986802  MEMB      278             0.0000000000
     33366       278  POPC      C2            -52.5532861001      -13.8245196320      -17.9884499509  MEMB      278             0.0000000000
     33367       278  POPC      HS            -51.7591030923      -13.2365019155      -18.4962192739  MEMB      278             0.0000000000
     33368       278  POPC      O21           -52.0256198944      -14.0013885053      -16.6424189196  MEMB      278             0.0000000000
     33369       278  POPC      C21           -51.3237076970      -15.0204263382      -16.2989259534  MEMB      278             0.0000000000
     33370       278  POPC      O22           -50.8564693903      -15.8728152237      -17.0474023214  MEMB      278             0.0000000000
     33371       278  POPC      C22           -51.2696417776      -15.1534474542      -14.8533449716  MEMB      278             0.0000000000
     33372       278  POPC      H2R           -51.0337447962      -14.1528115232      -14.4321539672  MEMB      278             0.0000000000
     33373       278  POPC      H2S           -50.6978670856      -15.9805524810      -14.3808070622  MEMB      278             0.0000000000
     33374       278  POPC      C3            -53.8712820319      -12.9677239530      -17.7090511635  MEMB      278             0.0000000000
     33375       278  POPC      HX            -54.1851124107      -12.7114285697      -18.7435288860  MEMB      278             0.0000000000
     33376       278  POPC      HY            -53.5057913623      -12.0747155609      -17.1583486913  MEMB      278             0.0000000000
     33377       278  POPC      O31           -54.8479807641      -13.8561443637      -17.0472913618  MEMB      278             0.0000000000
     33378       278  POPC      C31           -55.5314831346      -13.1269611406      -16.1938510652  MEMB      278             0.0000000000
     33379       278  POPC      O32           -55.4664878338      -11.9397590830      -16.0161808899  MEMB      278             0.0000000000
     33380       278  POPC      C32           -56.5378051623      -14.0373087019      -15.5451495714  MEMB      278             0.0000000000
     33381       278  POPC      H2X           -56.2503401495      -15.1003583559      -15.6921531837  MEMB      278             0.0000000000
     33382       278  POPC      H2Y           -57.5343438092      -13.7269106210      -15.9257874079  MEMB      278             0.0000000000
     33383       278  POPC      C23           -52.7122430866      -15.5989871519      -14.3931832138  MEMB      278             0.0000000000
     33384       278  POPC      H3R           -52.8572023189      -16.6246263168      -14.7948945331  MEMB      278             0.0000000000
     33385       278  POPC      H3S           -53.5648102325      -15.0251700190      -14.8153020657  MEMB      278             0.0000000000
     33386       278  POPC      C24           -52.9798394881      -15.5611939567      -12.8810562067  MEMB      278             0.0000000000
     33387       278  POPC      H4R           -52.4419416036      -16.2973418994      -12.2461758078  MEMB      278             0.0000000000
     33388       278  POPC      H4S           -53.9806674985      -15.9754288217      -12.6339252059  MEMB      278             0.0000000000
     33389       278  POPC      C25           -52.8311195076      -14.1075159660      -12.2074811855  MEMB      278             0.0000000000
     33390       278  POPC      H5R           -53.4087466948      -13.4371375906      -12.8792403991  MEMB      278             0.0000000000
     33391       278  POPC      H5S           -51.8755219203      -13.5936054502      -12.4463339602  MEMB      278             0.0000000000
     33392       278  POPC      C26           -53.2262824085      -14.0013277879      -10.7807031978  MEMB      278             0.0000000000
     33393       278  POPC      H6R           -54.1903800767      -14.5484369183      -10.7064857834  MEMB      278             0.0000000000
     33394       278  POPC      H6S           -53.4422875514      -12.9178421516      -10.6635637608  MEMB      278             0.0000000000
     33395       278  POPC      C27           -52.1824161640      -14.3642918020       -9.7664169888  MEMB      278             0.0000000000
     33396       278  POPC      H7R           -51.1318013453      -14.2588550437      -10.1119787129  MEMB      278             0.0000000000
     33397       278  POPC      H7S           -52.1802296081      -15.4660726386       -9.6236048221  MEMB      278             0.0000000000
     33398       278  POPC      C28           -52.3272701200      -13.7442044260       -8.3670442620  MEMB      278             0.0000000000
     33399       278  POPC      H8R           -52.1971848123      -12.6429435757       -8.4350377895  MEMB      278             0.0000000000
     33400       278  POPC      H8S           -51.4334229508      -13.9923195482       -7.7556555341  MEMB      278             0.0000000000
     33401       278  POPC      C29           -53.7282187479      -13.9443109480       -7.8050111170  MEMB      278             0.0000000000
     33402       278  POPC      H91           -54.4116887890      -13.2061241045       -8.2499254057  MEMB      278             0.0000000000
     33403       278  POPC      C210          -54.0633882217      -14.8154861148       -6.7779901568  MEMB      278             0.0000000000
     33404       278  POPC      H101          -55.1112433027      -14.7401196952       -6.4519234878  MEMB      278             0.0000000000
     33405       278  POPC      C211          -53.1261273748      -15.7398566984       -6.0791367623  MEMB      278             0.0000000000
     33406       278  POPC      H11R          -52.6001189925      -16.2860932251       -6.8910863583  MEMB      278             0.0000000000
     33407       278  POPC      H11S          -53.6329518620      -16.5349602587       -5.4915482942  MEMB      278             0.0000000000
     33408       278  POPC      C212          -52.2830511177      -15.0640095498       -5.0771387161  MEMB      278             0.0000000000
     33409       278  POPC      H12R          -52.9158992764      -14.5217307825       -4.3424567912  MEMB      278             0.0000000000
     33410       278  POPC      H12S          -51.6148174580      -14.3494535753       -5.6036316172  MEMB      278             0.0000000000
     33411       278  POPC      C213          -51.2977290270      -15.9662323801       -4.2698800707  MEMB      278             0.0000000000
     33412       278  POPC      H13R          -50.8896192146      -16.7098949246       -4.9873292026  MEMB      278             0.0000000000
     33413       278  POPC      H13S          -51.8351063320      -16.4194449388       -3.4095631914  MEMB      278             0.0000000000
     33414       278  POPC      C214          -50.1017807309      -15.1634875958       -3.7806923116  MEMB      278             0.0000000000
     33415       278  POPC      H14R          -49.7187050673      -14.4259081025       -4.5179517269  MEMB      278             0.0000000000
     33416       278  POPC      H14S          -49.2819865016      -15.8964391915       -3.6224531009  MEMB      278             0.0000000000
     33417       278  POPC      C215          -50.4669218206      -14.3865209920       -2.4477817989  MEMB      278             0.0000000000
     33418       278  POPC      H15R          -50.9764804081      -15.1639285297       -1.8392528338  MEMB      278             0.0000000000
     33419       278  POPC      H15S          -51.2045810551      -13.6312644201       -2.7938560927  MEMB      278             0.0000000000
     33420       278  POPC      C216          -49.2607143811      -13.8539739667       -1.6795585974  MEMB      278             0.0000000000
     33421       278  POPC      H16R          -48.6037299694      -13.3453067018       -2.4170889106  MEMB      278             0.0000000000
     33422       278  POPC      H16S          -48.6172962500      -14.6006723838       -1.1669430099  MEMB      278             0.0000000000
     33423       278  POPC      C217          -49.5970169324      -12.7904975924       -0.5994823433  MEMB      278             0.0000000000
     33424       278  POPC      H17R          -50.2328862648      -12.0593936623       -1.1430622550  MEMB      278             0.0000000000
     33425       278  POPC      H17S          -48.6767752660      -12.2741835129       -0.2517817414  MEMB      278             0.0000000000
     33426       278  POPC      C218          -50.2956426688      -13.4511522296        0.5929456493  MEMB      278             0.0000000000
     33427       278  POPC      H18R          -50.8511479017      -12.6462615546        1.1200940202  MEMB      278             0.0000000000
     33428       278  POPC      H18S          -49.6439090905      -14.0060966572        1.3011829977  MEMB      278             0.0000000000
     33429       278  POPC      H18T          -51.0414793994      -14.2003415144        0.2512364992  MEMB      278             0.0000000000
     33430       278  POPC      C33           -56.6546796080      -13.9301396481      -14.0537946970  MEMB      278             0.0000000000
     33431       278  POPC      H3X           -57.1168757575      -12.9717811163      -13.7340378998  MEMB      278             0.0000000000
     33432       278  POPC      H3Y           -55.6061583854      -13.9481206408      -13.6869149517  MEMB      278             0.0000000000
     33433       278  POPC      C34           -57.3893504944      -15.1374218990      -13.5203221051  MEMB      278             0.0000000000
     33434       278  POPC      H4X           -56.6221989152      -15.8311529246      -13.1146911761  MEMB      278             0.0000000000
     33435       278  POPC      H4Y           -57.8896143158      -15.7122778770      -14.3287759241  MEMB      278             0.0000000000
     33436       278  POPC      C35           -58.2911519563      -14.8078273210      -12.2999662711  MEMB      278             0.0000000000
     33437       278  POPC      H5X           -59.0060646612      -14.0486458126      -12.6831951858  MEMB      278             0.0000000000
     33438       278  POPC      H5Y           -57.6717671110      -14.3134038929      -11.5213591349  MEMB      278             0.0000000000
     33439       278  POPC      C36           -59.0034092719      -15.9762307401      -11.6739698658  MEMB      278             0.0000000000
     33440       278  POPC      H6X           -59.4822038056      -16.6427040456      -12.4228959461  MEMB      278             0.0000000000
     33441       278  POPC      H6Y           -59.8009546914      -15.5103925557      -11.0565259012  MEMB      278             0.0000000000
     33442       278  POPC      C37           -58.1266697392      -16.8127682791      -10.7133605109  MEMB      278             0.0000000000
     33443       278  POPC      H7X           -57.1091503892      -16.8454960786      -11.1582248392  MEMB      278             0.0000000000
     33444       278  POPC      H7Y           -58.4809214654      -17.8532083455      -10.5511525391  MEMB      278             0.0000000000
     33445       278  POPC      C38           -58.1912084668      -16.3208830129       -9.2744208356  MEMB      278             0.0000000000
     33446       278  POPC      H8X           -59.2577170078      -16.3539382283       -8.9649251824  MEMB      278             0.0000000000
     33447       278  POPC      H8Y           -57.9333949839      -15.2453040914       -9.3792211588  MEMB      278             0.0000000000
     33448       278  POPC      C39           -57.5404828964      -17.1580523609       -8.2837842651  MEMB      278             0.0000000000
     33449       278  POPC      H9X           -56.4574568109      -17.2405708462       -8.5173787362  MEMB      278             0.0000000000
     33450       278  POPC      H9Y           -57.9948168801      -18.1711949867       -8.2457930724  MEMB      278             0.0000000000
     33451       278  POPC      C310          -57.6746728950      -16.6719534823       -6.8689395678  MEMB      278             0.0000000000
     33452       278  POPC      H10X          -58.6478640334      -16.8909471357       -6.3797952203  MEMB      278             0.0000000000
     33453       278  POPC      H10Y          -57.4817794702      -15.5816378648       -6.7776996306  MEMB      278             0.0000000000
     33454       278  POPC      C311          -56.8048169861      -17.3250208856       -5.8086914091  MEMB      278             0.0000000000
     33455       278  POPC      H11X          -55.7559362043      -17.1458867132       -6.1281922593  MEMB      278             0.0000000000
     33456       278  POPC      H11Y          -56.8653571809      -18.4215546598       -5.9768288409  MEMB      278             0.0000000000
     33457       278  POPC      C312          -56.9636346754      -16.8855395336       -4.3695028979  MEMB      278             0.0000000000
     33458       278  POPC      H12X          -57.9577931420      -17.0956090866       -3.9202360116  MEMB      278             0.0000000000
     33459       278  POPC      H12Y          -56.8839888693      -15.7783188337       -4.4146633472  MEMB      278             0.0000000000
     33460       278  POPC      C313          -55.9902125776      -17.5678181909       -3.4796274130  MEMB      278             0.0000000000
     33461       278  POPC      H13X          -55.1291397705      -17.9844112070       -4.0447157283  MEMB      278             0.0000000000
     33462       278  POPC      H13Y          -56.3326827557      -18.5335026762       -3.0501060336  MEMB      278             0.0000000000
     33463       278  POPC      C314          -55.7471260025      -16.7157244663       -2.2022183214  MEMB      278             0.0000000000
     33464       278  POPC      H14X          -55.0370454935      -17.2152778575       -1.5089997399  MEMB      278             0.0000000000
     33465       278  POPC      H14Y          -56.7310559002      -16.5339369394       -1.7193567283  MEMB      278             0.0000000000
     33466       278  POPC      C315          -55.0661975367      -15.3776879102       -2.4793061526  MEMB      278             0.0000000000
     33467       278  POPC      H15X          -55.6082495986      -14.6807868704       -3.1537162777  MEMB      278             0.0000000000
     33468       278  POPC      H15Y          -54.0631907723      -15.5982415001       -2.9031622463  MEMB      278             0.0000000000
     33469       278  POPC      C316          -54.7928718587      -14.5897553536       -1.1014484405  MEMB      278             0.0000000000
     33470       278  POPC      H16X          -54.4373791699      -13.5696830219       -1.3610603841  MEMB      278             0.0000000000
     33471       278  POPC      H16Y          -54.1516051859      -15.2108944062       -0.4401736287  MEMB      278             0.0000000000
     33472       278  POPC      H16Z          -55.7933491955      -14.3990778438       -0.6575935085  MEMB      278             0.0000000000
     33473       279  POPC      N             -54.4095116257       23.5029472561      -19.9490774300  MEMB      279             0.0000000000
     33474       279  POPC      C12           -53.8785462499       23.9007822808      -18.5187520115  MEMB      279             0.0000000000
     33475       279  POPC      H12A          -52.8439353490       23.6265169612      -18.3746726940  MEMB      279             0.0000000000
     33476       279  POPC      H12B          -54.3828218181       23.3942899071      -17.7090780981  MEMB      279             0.0000000000
     33477       279  POPC      C13           -55.7991644886       23.9695447518      -20.2175055404  MEMB      279             0.0000000000
     33478       279  POPC      H13A          -56.5544614093       23.3727306652      -19.7278732665  MEMB      279             0.0000000000
     33479       279  POPC      H13B          -55.8994470181       25.0046490122      -19.9261248903  MEMB      279             0.0000000000
     33480       279  POPC      H13C          -55.9672350032       24.0228200934      -21.2830167257  MEMB      279             0.0000000000
     33481       279  POPC      C14           -53.5385259611       24.0957306598      -20.9497326049  MEMB      279             0.0000000000
     33482       279  POPC      H14A          -53.3181586451       25.1158116979      -20.6717524525  MEMB      279             0.0000000000
     33483       279  POPC      H14B          -52.6043246144       23.5548571102      -20.9832543946  MEMB      279             0.0000000000
     33484       279  POPC      H14C          -53.9879623284       24.1761326655      -21.9284780247  MEMB      279             0.0000000000
     33485       279  POPC      C15           -54.3039419705       22.0276647816      -20.1483070169  MEMB      279             0.0000000000
     33486       279  POPC      H15A          -54.4779133674       21.6246916429      -21.1350929878  MEMB      279             0.0000000000
     33487       279  POPC      H15B          -54.9964661682       21.5025547086      -19.5071599302  MEMB      279             0.0000000000
     33488       279  POPC      H15C          -53.2983998536       21.6936372719      -19.9392359931  MEMB      279             0.0000000000
     33489       279  POPC      C11           -53.9242333221       25.3693444006      -18.1585081480  MEMB      279             0.0000000000
     33490       279  POPC      H11A          -53.6276766365       25.4320924430      -17.0896592740  MEMB      279             0.0000000000
     33491       279  POPC      H11B          -54.9559893191       25.7749349275      -18.0857293339  MEMB      279             0.0000000000
     33492       279  POPC      P             -52.0370011303       27.2113233471      -18.2060701902  MEMB      279             0.0000000000
     33493       279  POPC      O13           -51.3029033003       28.0335200670      -19.2656948806  MEMB      279             0.0000000000
     33494       279  POPC      O14           -51.1153870566       26.4450183850      -17.3802422940  MEMB      279             0.0000000000
     33495       279  POPC      O12           -53.0475027701       26.1535823933      -18.9191518616  MEMB      279             0.0000000000
     33496       279  POPC      O11           -53.0079027700       28.0928776039      -17.2869580625  MEMB      279             0.0000000000
     33497       279  POPC      C1            -53.8669330845       28.9845793050      -17.9583083872  MEMB      279             0.0000000000
     33498       279  POPC      HA            -54.4627353079       28.4475300351      -18.7270208339  MEMB      279             0.0000000000
     33499       279  POPC      HB            -53.1873476775       29.7960271302      -18.2960021417  MEMB      279             0.0000000000
     33500       279  POPC      C2            -54.8394599354       29.6609862963      -16.8728156544  MEMB      279             0.0000000000
     33501       279  POPC      HS            -55.0016466939       30.7042068850      -17.2188024148  MEMB      279             0.0000000000
     33502       279  POPC      O21           -54.2476173815       29.5668427497      -15.5437832028  MEMB      279             0.0000000000
     33503       279  POPC      C21           -53.0508556054       30.1219328066      -15.2523444511  MEMB      279             0.0000000000
     33504       279  POPC      O22           -52.4864579490       31.0221244650      -15.9275924352  MEMB      279             0.0000000000
     33505       279  POPC      C22           -52.4282457313       29.3003117515      -14.1092151969  MEMB      279             0.0000000000
     33506       279  POPC      H2R           -51.3448519849       29.1520823534      -14.3057014533  MEMB      279             0.0000000000
     33507       279  POPC      H2S           -52.9383994629       28.3140234440      -14.1452659242  MEMB      279             0.0000000000
     33508       279  POPC      C3            -56.2256993654       28.8786918219      -16.8025818932  MEMB      279             0.0000000000
     33509       279  POPC      HX            -56.7036551411       28.9816372418      -17.8002197114  MEMB      279             0.0000000000
     33510       279  POPC      HY            -56.8680992214       29.3818642561      -16.0486183366  MEMB      279             0.0000000000
     33511       279  POPC      O31           -56.0441000115       27.5070507463      -16.4933308971  MEMB      279             0.0000000000
     33512       279  POPC      C31           -57.0969257408       26.8986647378      -16.0444316932  MEMB      279             0.0000000000
     33513       279  POPC      O32           -58.2824203155       27.2415047117      -16.0524717771  MEMB      279             0.0000000000
     33514       279  POPC      C32           -56.6239926656       25.5166530097      -15.4698874712  MEMB      279             0.0000000000
     33515       279  POPC      H2X           -55.8460008964       25.1023639529      -16.1462116089  MEMB      279             0.0000000000
     33516       279  POPC      H2Y           -57.4834182215       24.8164379994      -15.3963517329  MEMB      279             0.0000000000
     33517       279  POPC      C23           -52.6703721099       29.9018572985      -12.6669178499  MEMB      279             0.0000000000
     33518       279  POPC      H3R           -53.7298822807       30.0773683649      -12.3823914073  MEMB      279             0.0000000000
     33519       279  POPC      H3S           -52.1672581429       30.8894868570      -12.7429759355  MEMB      279             0.0000000000
     33520       279  POPC      C24           -51.9530320698       29.0648309239      -11.5767325337  MEMB      279             0.0000000000
     33521       279  POPC      H4R           -50.9159762436       28.7821033551      -11.8576262683  MEMB      279             0.0000000000
     33522       279  POPC      H4S           -52.5446585941       28.1254948236      -11.6208546920  MEMB      279             0.0000000000
     33523       279  POPC      C25           -51.8176661225       29.6343890691      -10.2218071570  MEMB      279             0.0000000000
     33524       279  POPC      H5R           -51.2938890074       28.9332480628       -9.5374241159  MEMB      279             0.0000000000
     33525       279  POPC      H5S           -52.8418389295       29.7142564017       -9.7987083196  MEMB      279             0.0000000000
     33526       279  POPC      C26           -51.2355402361       31.0222955561      -10.0784399557  MEMB      279             0.0000000000
     33527       279  POPC      H6R           -51.9552301163       31.7651628133      -10.4840451322  MEMB      279             0.0000000000
     33528       279  POPC      H6S           -50.4764120708       31.0868924234      -10.8870638340  MEMB      279             0.0000000000
     33529       279  POPC      C27           -50.7274867717       31.2815751366       -8.7426977863  MEMB      279             0.0000000000
     33530       279  POPC      H7R           -50.4306740164       32.3426494238       -8.8853291032  MEMB      279             0.0000000000
     33531       279  POPC      H7S           -49.8804778351       30.6146300819       -8.4742190587  MEMB      279             0.0000000000
     33532       279  POPC      C28           -51.8045522891       31.2219938077       -7.5775910193  MEMB      279             0.0000000000
     33533       279  POPC      H8R           -52.7043329836       31.8726249544       -7.6149417980  MEMB      279             0.0000000000
     33534       279  POPC      H8S           -51.0715482279       31.6753740907       -6.8765400569  MEMB      279             0.0000000000
     33535       279  POPC      C29           -52.1825125778       29.8522475834       -7.1257390812  MEMB      279             0.0000000000
     33536       279  POPC      H91           -51.3441957071       29.1401681734       -7.1127942626  MEMB      279             0.0000000000
     33537       279  POPC      C210          -53.4548975226       29.5158956563       -6.7828076373  MEMB      279             0.0000000000
     33538       279  POPC      H101          -53.7169888293       28.4889208270       -6.4884763950  MEMB      279             0.0000000000
     33539       279  POPC      C211          -54.7326127093       30.3615129855       -6.8117676476  MEMB      279             0.0000000000
     33540       279  POPC      H11R          -55.3160703018       30.1842236357       -7.7404594344  MEMB      279             0.0000000000
     33541       279  POPC      H11S          -54.5123340479       31.4503520298       -6.8268611860  MEMB      279             0.0000000000
     33542       279  POPC      C212          -55.6039398265       30.0707484191       -5.6450879660  MEMB      279             0.0000000000
     33543       279  POPC      H12R          -55.9153682235       29.0046203164       -5.6185540319  MEMB      279             0.0000000000
     33544       279  POPC      H12S          -56.5498994818       30.6245146952       -5.8262625334  MEMB      279             0.0000000000
     33545       279  POPC      C213          -55.0621854259       30.3494028323       -4.1539903263  MEMB      279             0.0000000000
     33546       279  POPC      H13R          -54.5215181103       31.3054051021       -3.9864812260  MEMB      279             0.0000000000
     33547       279  POPC      H13S          -54.3636930222       29.5615402616       -3.7994458778  MEMB      279             0.0000000000
     33548       279  POPC      C214          -56.2246190081       30.0774617827       -3.1637339843  MEMB      279             0.0000000000
     33549       279  POPC      H14R          -57.1566630993       30.6242283352       -3.4219224008  MEMB      279             0.0000000000
     33550       279  POPC      H14S          -55.9580242465       30.5684053933       -2.2034111859  MEMB      279             0.0000000000
     33551       279  POPC      C215          -56.5236711575       28.5748163956       -2.9250179195  MEMB      279             0.0000000000
     33552       279  POPC      H15R          -55.5738102988       28.0286312811       -2.7412589235  MEMB      279             0.0000000000
     33553       279  POPC      H15S          -57.0065576830       28.2591582692       -3.8744923043  MEMB      279             0.0000000000
     33554       279  POPC      C216          -57.5552176518       28.2545293053       -1.8359161545  MEMB      279             0.0000000000
     33555       279  POPC      H16R          -58.5021900158       28.7830922062       -2.0771347616  MEMB      279             0.0000000000
     33556       279  POPC      H16S          -57.0811967980       28.6655549574       -0.9190289820  MEMB      279             0.0000000000
     33557       279  POPC      C217          -57.9984436580       26.7969137602       -1.7853224199  MEMB      279             0.0000000000
     33558       279  POPC      H17R          -57.2034287659       26.0212063794       -1.7618632029  MEMB      279             0.0000000000
     33559       279  POPC      H17S          -58.6283744119       26.5789701250       -2.6741466651  MEMB      279             0.0000000000
     33560       279  POPC      C218          -58.8002467110       26.5507501431       -0.5473564748  MEMB      279             0.0000000000
     33561       279  POPC      H18R          -58.9747955733       25.4563003887       -0.4696805479  MEMB      279             0.0000000000
     33562       279  POPC      H18S          -59.8321202740       26.9624922412       -0.5524638699  MEMB      279             0.0000000000
     33563       279  POPC      H18T          -58.3534626901       27.0094743347        0.3605406433  MEMB      279             0.0000000000
     33564       279  POPC      C33           -55.9980276368       25.8727425073      -14.1459806659  MEMB      279             0.0000000000
     33565       279  POPC      H3X           -56.7824890839       26.3733945782      -13.5391125354  MEMB      279             0.0000000000
     33566       279  POPC      H3Y           -55.1175386026       26.5493039311      -14.1823777750  MEMB      279             0.0000000000
     33567       279  POPC      C34           -55.4820083425       24.5723886581      -13.4106963133  MEMB      279             0.0000000000
     33568       279  POPC      H4X           -54.7444851024       24.0096794246      -14.0220380320  MEMB      279             0.0000000000
     33569       279  POPC      H4Y           -56.3440304338       23.8746821544      -13.3440327111  MEMB      279             0.0000000000
     33570       279  POPC      C35           -54.8270861758       24.9925530058      -12.0611316123  MEMB      279             0.0000000000
     33571       279  POPC      H5X           -55.6125864331       25.6095002390      -11.5746270823  MEMB      279             0.0000000000
     33572       279  POPC      H5Y           -53.9921202306       25.7119716274      -12.2010946907  MEMB      279             0.0000000000
     33573       279  POPC      C36           -54.1964404646       23.9168564294      -11.1689951778  MEMB      279             0.0000000000
     33574       279  POPC      H6X           -53.4453668659       23.3374747602      -11.7473776455  MEMB      279             0.0000000000
     33575       279  POPC      H6Y           -54.9448329100       23.1856319374      -10.7954445193  MEMB      279             0.0000000000
     33576       279  POPC      C37           -53.5370068671       24.4585648023       -9.8961569395  MEMB      279             0.0000000000
     33577       279  POPC      H7X           -52.7312012773       25.0933167574      -10.3228748865  MEMB      279             0.0000000000
     33578       279  POPC      H7Y           -53.0680279323       23.5839892832       -9.3966598072  MEMB      279             0.0000000000
     33579       279  POPC      C38           -54.3025084336       25.2443241257       -8.8078699088  MEMB      279             0.0000000000
     33580       279  POPC      H8X           -54.6045318974       26.2600992169       -9.1414916415  MEMB      279             0.0000000000
     33581       279  POPC      H8Y           -53.5618559496       25.5288197919       -8.0301696243  MEMB      279             0.0000000000
     33582       279  POPC      C39           -55.3966827267       24.4835137072       -8.0798197638  MEMB      279             0.0000000000
     33583       279  POPC      H9X           -55.2562406004       23.4174998763       -8.3594837860  MEMB      279             0.0000000000
     33584       279  POPC      H9Y           -56.3416190365       24.7355366679       -8.6069828057  MEMB      279             0.0000000000
     33585       279  POPC      C310          -55.5599684314       24.8649822268       -6.6042186540  MEMB      279             0.0000000000
     33586       279  POPC      H10X          -56.6508564445       24.8369869664       -6.3956505630  MEMB      279             0.0000000000
     33587       279  POPC      H10Y          -55.2188696794       25.9044819581       -6.4107950029  MEMB      279             0.0000000000
     33588       279  POPC      C311          -54.7689658820       23.9513719464       -5.6077517425  MEMB      279             0.0000000000
     33589       279  POPC      H11X          -53.7603943841       23.8476220224       -6.0619997214  MEMB      279             0.0000000000
     33590       279  POPC      H11Y          -55.2960479144       22.9858046790       -5.4522348220  MEMB      279             0.0000000000
     33591       279  POPC      C312          -54.4242665404       24.5925772325       -4.2352016862  MEMB      279             0.0000000000
     33592       279  POPC      H12X          -55.3412571983       25.0858951683       -3.8477914150  MEMB      279             0.0000000000
     33593       279  POPC      H12Y          -53.7545700047       25.4739302611       -4.3303036876  MEMB      279             0.0000000000
     33594       279  POPC      C313          -53.7740234264       23.6760845900       -3.1937358685  MEMB      279             0.0000000000
     33595       279  POPC      H13X          -52.8309490249       23.3922791249       -3.7079202340  MEMB      279             0.0000000000
     33596       279  POPC      H13Y          -54.4072871387       22.7675947646       -3.1046053150  MEMB      279             0.0000000000
     33597       279  POPC      C314          -53.6140161930       24.2588421157       -1.7973589213  MEMB      279             0.0000000000
     33598       279  POPC      H14X          -52.9651035805       23.5515579431       -1.2379104828  MEMB      279             0.0000000000
     33599       279  POPC      H14Y          -54.6343981473       24.4018860121       -1.3818118585  MEMB      279             0.0000000000
     33600       279  POPC      C315          -52.7222124144       25.5885110332       -1.6507093512  MEMB      279             0.0000000000
     33601       279  POPC      H15X          -53.1065205922       26.3748141186       -2.3350752150  MEMB      279             0.0000000000
     33602       279  POPC      H15Y          -51.6850356800       25.2957311631       -1.9206466354  MEMB      279             0.0000000000
     33603       279  POPC      C316          -52.5904521378       26.3508169813       -0.3126146478  MEMB      279             0.0000000000
     33604       279  POPC      H16X          -51.8509444229       27.1531180335       -0.5218099932  MEMB      279             0.0000000000
     33605       279  POPC      H16Y          -52.2349414731       25.6917911440        0.5081280478  MEMB      279             0.0000000000
     33606       279  POPC      H16Z          -53.4735651827       26.9820633695       -0.0760549208  MEMB      279             0.0000000000
     33607       280  POPC      N              32.6037911705      -44.7129512599      -18.1110012198  MEMB      280             0.0000000000
     33608       280  POPC      C12            33.3118778083      -46.0642375118      -18.1491263012  MEMB      280             0.0000000000
     33609       280  POPC      H12A           32.6747280542      -46.8017391878      -17.6837966447  MEMB      280             0.0000000000
     33610       280  POPC      H12B           34.1070745019      -45.9627743085      -17.4254085156  MEMB      280             0.0000000000
     33611       280  POPC      C13            33.5168748841      -43.5787659294      -18.4150399965  MEMB      280             0.0000000000
     33612       280  POPC      H13A           34.3177551029      -43.5130877075      -17.6934602768  MEMB      280             0.0000000000
     33613       280  POPC      H13B           34.0202605999      -43.7669911592      -19.3518292218  MEMB      280             0.0000000000
     33614       280  POPC      H13C           32.9300270475      -42.6867927575      -18.5775010376  MEMB      280             0.0000000000
     33615       280  POPC      C14            31.4987531674      -44.7453201299      -19.1354104302  MEMB      280             0.0000000000
     33616       280  POPC      H14A           30.8641750705      -43.8723907421      -19.1767032199  MEMB      280             0.0000000000
     33617       280  POPC      H14B           31.9976134857      -44.8645698481      -20.0858408440  MEMB      280             0.0000000000
     33618       280  POPC      H14C           30.8400356206      -45.5671441887      -18.8964621981  MEMB      280             0.0000000000
     33619       280  POPC      C15            31.9322896956      -44.6520159769      -16.7291481170  MEMB      280             0.0000000000
     33620       280  POPC      H15A           32.5479676135      -45.2493674501      -16.0730140111  MEMB      280             0.0000000000
     33621       280  POPC      H15B           30.9175450327      -45.0059885860      -16.8359035288  MEMB      280             0.0000000000
     33622       280  POPC      H15C           31.8105494084      -43.6231783919      -16.4240703847  MEMB      280             0.0000000000
     33623       280  POPC      C11            33.8920132862      -46.6352475042      -19.4036604919  MEMB      280             0.0000000000
     33624       280  POPC      H11A           33.1150426774      -46.6496866941      -20.1976561153  MEMB      280             0.0000000000
     33625       280  POPC      H11B           34.1911165093      -47.6882159061      -19.2136191743  MEMB      280             0.0000000000
     33626       280  POPC      P              36.5011021613      -46.3007334932      -19.8342506097  MEMB      280             0.0000000000
     33627       280  POPC      O13            37.3685609866      -45.1153695834      -19.5672416768  MEMB      280             0.0000000000
     33628       280  POPC      O14            36.7750564008      -46.9736969963      -21.1528628450  MEMB      280             0.0000000000
     33629       280  POPC      O12            34.9876729505      -45.8305421550      -19.8074292793  MEMB      280             0.0000000000
     33630       280  POPC      O11            36.4532636410      -47.3727336378      -18.6948289907  MEMB      280             0.0000000000
     33631       280  POPC      C1             37.6085793709      -48.0564453014      -18.2012744679  MEMB      280             0.0000000000
     33632       280  POPC      HA             38.5689872429      -47.8092641421      -18.7021128430  MEMB      280             0.0000000000
     33633       280  POPC      HB             37.4641254370      -49.1518216422      -18.3179149662  MEMB      280             0.0000000000
     33634       280  POPC      C2             37.7391250217      -47.7346912893      -16.6727552988  MEMB      280             0.0000000000
     33635       280  POPC      HS             38.6224528265      -48.2536199217      -16.2429110339  MEMB      280             0.0000000000
     33636       280  POPC      O21            36.5752260847      -48.2788945794      -15.9579897193  MEMB      280             0.0000000000
     33637       280  POPC      C21            36.6036726410      -49.6647176872      -15.7730575278  MEMB      280             0.0000000000
     33638       280  POPC      O22            37.6464103468      -50.3712057816      -15.8515187835  MEMB      280             0.0000000000
     33639       280  POPC      C22            35.1767762905      -50.0977159893      -15.6453499651  MEMB      280             0.0000000000
     33640       280  POPC      H2R            35.0430536734      -50.8256655563      -16.4739203208  MEMB      280             0.0000000000
     33641       280  POPC      H2S            34.4351999385      -49.2773403918      -15.7519773553  MEMB      280             0.0000000000
     33642       280  POPC      C3             37.8801424914      -46.2533684446      -16.4476587190  MEMB      280             0.0000000000
     33643       280  POPC      HX             37.1177559493      -45.6334738004      -16.9661356240  MEMB      280             0.0000000000
     33644       280  POPC      HY             38.8419325281      -45.8846540831      -16.8639886808  MEMB      280             0.0000000000
     33645       280  POPC      O31            37.7345213750      -46.0182605213      -15.0599407262  MEMB      280             0.0000000000
     33646       280  POPC      C31            36.6392157740      -45.4324852029      -14.5896363821  MEMB      280             0.0000000000
     33647       280  POPC      O32            35.6118621902      -45.2615317618      -15.1303427315  MEMB      280             0.0000000000
     33648       280  POPC      C32            36.9093622996      -44.9818755392      -13.1161958513  MEMB      280             0.0000000000
     33649       280  POPC      H2X            38.0157628027      -44.9161661825      -13.0395065596  MEMB      280             0.0000000000
     33650       280  POPC      H2Y            36.5531756104      -45.7937004372      -12.4465746967  MEMB      280             0.0000000000
     33651       280  POPC      C23            34.9325503536      -50.6746611470      -14.2061135998  MEMB      280             0.0000000000
     33652       280  POPC      H3R            35.6515368527      -51.4822912058      -13.9509417371  MEMB      280             0.0000000000
     33653       280  POPC      H3S            33.9468397529      -51.1854364449      -14.1636408989  MEMB      280             0.0000000000
     33654       280  POPC      C24            35.1516375967      -49.6631760540      -13.0671071013  MEMB      280             0.0000000000
     33655       280  POPC      H4R            36.2377656083      -49.4296142387      -13.0768953103  MEMB      280             0.0000000000
     33656       280  POPC      H4S            35.0461726773      -50.1482366349      -12.0731683718  MEMB      280             0.0000000000
     33657       280  POPC      C25            34.2783142986      -48.3718183329      -13.1388025728  MEMB      280             0.0000000000
     33658       280  POPC      H5R            33.2360379332      -48.6960797103      -13.3457704959  MEMB      280             0.0000000000
     33659       280  POPC      H5S            34.5887414852      -47.7709371326      -14.0202210370  MEMB      280             0.0000000000
     33660       280  POPC      C26            34.1933444494      -47.5523948680      -11.8542718824  MEMB      280             0.0000000000
     33661       280  POPC      H6R            34.3455537317      -46.4889940604      -12.1377008995  MEMB      280             0.0000000000
     33662       280  POPC      H6S            35.0689070582      -47.8188607634      -11.2244248159  MEMB      280             0.0000000000
     33663       280  POPC      C27            32.9789557649      -47.8245024486      -10.9676510557  MEMB      280             0.0000000000
     33664       280  POPC      H7R            33.2474356850      -47.6692163473       -9.9008213861  MEMB      280             0.0000000000
     33665       280  POPC      H7S            32.8799450866      -48.9237423422      -11.0948886025  MEMB      280             0.0000000000
     33666       280  POPC      C28            31.7096618485      -47.0329923291      -11.2352617234  MEMB      280             0.0000000000
     33667       280  POPC      H8R            31.0534016764      -47.5803184078      -10.5252778154  MEMB      280             0.0000000000
     33668       280  POPC      H8S            31.2113626098      -47.1248834012      -12.2239854804  MEMB      280             0.0000000000
     33669       280  POPC      C29            32.0352077107      -45.6182123270      -10.8604993910  MEMB      280             0.0000000000
     33670       280  POPC      H91            32.4205874284      -45.0038059680      -11.6875340274  MEMB      280             0.0000000000
     33671       280  POPC      C210           31.8985424311      -44.9669979637       -9.6800988093  MEMB      280             0.0000000000
     33672       280  POPC      H101           32.1875414532      -43.9103497654       -9.5802280916  MEMB      280             0.0000000000
     33673       280  POPC      C211           31.3689854786      -45.5976444378       -8.3971551583  MEMB      280             0.0000000000
     33674       280  POPC      H11R           30.8456829422      -46.5448835549       -8.6485782567  MEMB      280             0.0000000000
     33675       280  POPC      H11S           30.5926835443      -44.9195407908       -7.9826051084  MEMB      280             0.0000000000
     33676       280  POPC      C212           32.5288883730      -45.9820438945       -7.4054508522  MEMB      280             0.0000000000
     33677       280  POPC      H12R           33.1113115021      -45.1101091541       -7.0382531138  MEMB      280             0.0000000000
     33678       280  POPC      H12S           33.1485774017      -46.8285051135       -7.7712508935  MEMB      280             0.0000000000
     33679       280  POPC      C213           31.9794323240      -46.4133225773       -6.0640160446  MEMB      280             0.0000000000
     33680       280  POPC      H13R           31.3668375669      -47.3386409580       -6.1172568208  MEMB      280             0.0000000000
     33681       280  POPC      H13S           31.2267511594      -45.6619064432       -5.7428217833  MEMB      280             0.0000000000
     33682       280  POPC      C214           33.0829961161      -46.4859433522       -4.9792672873  MEMB      280             0.0000000000
     33683       280  POPC      H14R           33.4422024888      -45.4405630652       -4.8675897262  MEMB      280             0.0000000000
     33684       280  POPC      H14S           33.8807018873      -47.2079732315       -5.2561416061  MEMB      280             0.0000000000
     33685       280  POPC      C215           32.5275677328      -47.0516302002       -3.6296250236  MEMB      280             0.0000000000
     33686       280  POPC      H15R           32.0305829114      -48.0390804158       -3.7403915312  MEMB      280             0.0000000000
     33687       280  POPC      H15S           31.8537130778      -46.3064121840       -3.1553980352  MEMB      280             0.0000000000
     33688       280  POPC      C216           33.7685986345      -47.2227113019       -2.6946997519  MEMB      280             0.0000000000
     33689       280  POPC      H16R           34.1808842643      -46.2194236737       -2.4543756779  MEMB      280             0.0000000000
     33690       280  POPC      H16S           34.4716573855      -47.8233076488       -3.3105836166  MEMB      280             0.0000000000
     33691       280  POPC      C217           33.3933642026      -47.9398091507       -1.3641415018  MEMB      280             0.0000000000
     33692       280  POPC      H17R           34.2957796971      -47.9395530815       -0.7160922308  MEMB      280             0.0000000000
     33693       280  POPC      H17S           33.0305223778      -48.9735056124       -1.5489073759  MEMB      280             0.0000000000
     33694       280  POPC      C218           32.2075945110      -47.3269562031       -0.5266850010  MEMB      280             0.0000000000
     33695       280  POPC      H18R           32.3713376559      -46.2281150412       -0.5342688475  MEMB      280             0.0000000000
     33696       280  POPC      H18S           32.1777268143      -47.7315034716        0.5076113544  MEMB      280             0.0000000000
     33697       280  POPC      H18T           31.2368364307      -47.5148043444       -1.0333041093  MEMB      280             0.0000000000
     33698       280  POPC      C33            36.0245875231      -43.7865005869      -12.7723819442  MEMB      280             0.0000000000
     33699       280  POPC      H3X            34.9708013410      -44.1274860661      -12.8594724825  MEMB      280             0.0000000000
     33700       280  POPC      H3Y            36.2133665942      -42.9594924592      -13.4898361126  MEMB      280             0.0000000000
     33701       280  POPC      C34            36.1097446229      -43.2014182540      -11.3581788163  MEMB      280             0.0000000000
     33702       280  POPC      H4X            35.6883300781      -42.1768924852      -11.4423080873  MEMB      280             0.0000000000
     33703       280  POPC      H4Y            37.2034609815      -43.0694010672      -11.2143858750  MEMB      280             0.0000000000
     33704       280  POPC      C35            35.7218468723      -43.9708264912      -10.0848849345  MEMB      280             0.0000000000
     33705       280  POPC      H5X            34.7323711353      -44.4678683162      -10.1754832741  MEMB      280             0.0000000000
     33706       280  POPC      H5Y            35.5322317190      -43.1881046425       -9.3195660048  MEMB      280             0.0000000000
     33707       280  POPC      C36            36.7916685617      -44.9964186973       -9.5437237912  MEMB      280             0.0000000000
     33708       280  POPC      H6X            37.7882104144      -44.5113977906       -9.4663912162  MEMB      280             0.0000000000
     33709       280  POPC      H6Y            36.8236072249      -45.8447147089      -10.2604487809  MEMB      280             0.0000000000
     33710       280  POPC      C37            36.3715922519      -45.5211865809       -8.1682279089  MEMB      280             0.0000000000
     33711       280  POPC      H7X            35.4076468687      -46.0715586508       -8.2153559478  MEMB      280             0.0000000000
     33712       280  POPC      H7Y            36.1980207352      -44.7141416926       -7.4246737514  MEMB      280             0.0000000000
     33713       280  POPC      C38            37.4016618133      -46.5032193046       -7.5555838518  MEMB      280             0.0000000000
     33714       280  POPC      H8X            38.2333845466      -45.7836104801       -7.3983552571  MEMB      280             0.0000000000
     33715       280  POPC      H8Y            37.7050163122      -47.2888917873       -8.2801640027  MEMB      280             0.0000000000
     33716       280  POPC      C39            36.8777695057      -47.1385481499       -6.2412268358  MEMB      280             0.0000000000
     33717       280  POPC      H9X            35.9959223419      -47.7443891069       -6.5405987777  MEMB      280             0.0000000000
     33718       280  POPC      H9Y            36.6680501874      -46.2659660670       -5.5862917871  MEMB      280             0.0000000000
     33719       280  POPC      C310           37.9034942689      -48.0300320820       -5.4990000601  MEMB      280             0.0000000000
     33720       280  POPC      H10X           38.9309879959      -47.6077060790       -5.5137833132  MEMB      280             0.0000000000
     33721       280  POPC      H10Y           37.8437146114      -48.9241323060       -6.1557591855  MEMB      280             0.0000000000
     33722       280  POPC      C311           37.4952463369      -48.4041953390       -4.0467966614  MEMB      280             0.0000000000
     33723       280  POPC      H11X           38.0469651200      -49.1658293917       -3.4553226444  MEMB      280             0.0000000000
     33724       280  POPC      H11Y           36.3892260159      -48.4863377545       -3.9812794281  MEMB      280             0.0000000000
     33725       280  POPC      C312           37.7334418846      -47.1170612453       -3.1469255697  MEMB      280             0.0000000000
     33726       280  POPC      H12X           37.3974171803      -46.1101152469       -3.4747494914  MEMB      280             0.0000000000
     33727       280  POPC      H12Y           38.8411188851      -47.0488136280       -3.0948180573  MEMB      280             0.0000000000
     33728       280  POPC      C313           37.2478190140      -47.3746622308       -1.7522647369  MEMB      280             0.0000000000
     33729       280  POPC      H13X           37.8081144458      -48.2516788209       -1.3633797905  MEMB      280             0.0000000000
     33730       280  POPC      H13Y           36.1616654967      -47.6028065041       -1.8026815589  MEMB      280             0.0000000000
     33731       280  POPC      C314           37.4415589836      -46.1929252701       -0.7836364529  MEMB      280             0.0000000000
     33732       280  POPC      H14X           36.6189037182      -45.4550457884       -0.8980632829  MEMB      280             0.0000000000
     33733       280  POPC      H14Y           38.3518278984      -45.5898801930       -0.9887434326  MEMB      280             0.0000000000
     33734       280  POPC      C315           37.3709061720      -46.4082672960        0.7572944114  MEMB      280             0.0000000000
     33735       280  POPC      H15X           37.9245467132      -45.5178295609        1.1246134082  MEMB      280             0.0000000000
     33736       280  POPC      H15Y           37.8489162530      -47.2997526248        1.2167299786  MEMB      280             0.0000000000
     33737       280  POPC      C316           35.9040511201      -46.1203042737        1.2869094933  MEMB      280             0.0000000000
     33738       280  POPC      H16X           35.1504014029      -46.9073604343        1.0704006256  MEMB      280             0.0000000000
     33739       280  POPC      H16Y           35.5059088459      -45.1782178657        0.8530003824  MEMB      280             0.0000000000
     33740       280  POPC      H16Z           35.9378394946      -45.9938599914        2.3901723086  MEMB      280             0.0000000000
     33741       281  POPC      N             -18.1014679230       57.3131184166      -20.5359860087  MEMB      281             0.0000000000
     33742       281  POPC      C12           -17.4884197759       58.5106986937      -19.7828302821  MEMB      281             0.0000000000
     33743       281  POPC      H12A          -18.3103243465       59.1972750716      -19.6432395012  MEMB      281             0.0000000000
     33744       281  POPC      H12B          -16.7539721111       58.9452877389      -20.4447357773  MEMB      281             0.0000000000
     33745       281  POPC      C13           -17.0806567574       56.4507942749      -21.1221701968  MEMB      281             0.0000000000
     33746       281  POPC      H13A          -17.4816276793       55.6307872267      -21.6994144648  MEMB      281             0.0000000000
     33747       281  POPC      H13B          -16.4554437858       57.0870181683      -21.7310446291  MEMB      281             0.0000000000
     33748       281  POPC      H13C          -16.5831201434       55.9899081295      -20.2816696975  MEMB      281             0.0000000000
     33749       281  POPC      C14           -18.9035954885       56.4860066320      -19.6260384451  MEMB      281             0.0000000000
     33750       281  POPC      H14A          -18.3506190653       56.3155568794      -18.7141370952  MEMB      281             0.0000000000
     33751       281  POPC      H14B          -19.8682262485       56.9708292226      -19.5971528729  MEMB      281             0.0000000000
     33752       281  POPC      H14C          -19.0855945845       55.5101421699      -20.0514378856  MEMB      281             0.0000000000
     33753       281  POPC      C15           -19.0450547858       57.7273642113      -21.5431568631  MEMB      281             0.0000000000
     33754       281  POPC      H15A          -19.5653033452       56.8920037154      -21.9880322626  MEMB      281             0.0000000000
     33755       281  POPC      H15B          -18.5144284950       58.3519285126      -22.2465452065  MEMB      281             0.0000000000
     33756       281  POPC      H15C          -19.7375422366       58.3468847563      -20.9926520335  MEMB      281             0.0000000000
     33757       281  POPC      C11           -16.7380955607       58.0300423592      -18.5051702703  MEMB      281             0.0000000000
     33758       281  POPC      H11A          -17.5003288626       57.9516520845      -17.7006976190  MEMB      281             0.0000000000
     33759       281  POPC      H11B          -16.1072128896       58.9145393797      -18.2728491737  MEMB      281             0.0000000000
     33760       281  POPC      P             -15.4061131150       55.9498102305      -17.5801933529  MEMB      281             0.0000000000
     33761       281  POPC      O13           -14.4589027832       55.1429204956      -18.2887684328  MEMB      281             0.0000000000
     33762       281  POPC      O14           -16.6293197305       55.3062877694      -16.9416474413  MEMB      281             0.0000000000
     33763       281  POPC      O12           -15.8640051007       56.9644917854      -18.6746355973  MEMB      281             0.0000000000
     33764       281  POPC      O11           -14.6959644992       56.7471335522      -16.3994031066  MEMB      281             0.0000000000
     33765       281  POPC      C1            -13.5535334566       57.5095461125      -16.5488195153  MEMB      281             0.0000000000
     33766       281  POPC      HA            -13.4271938443       58.0262075058      -17.5242272906  MEMB      281             0.0000000000
     33767       281  POPC      HB            -12.7033639712       56.8018103657      -16.6519842636  MEMB      281             0.0000000000
     33768       281  POPC      C2            -13.4764169380       58.6875176644      -15.4795337844  MEMB      281             0.0000000000
     33769       281  POPC      HS            -12.4857302102       59.1825342184      -15.5679611122  MEMB      281             0.0000000000
     33770       281  POPC      O21           -13.5173199228       58.1407373539      -14.1023694039  MEMB      281             0.0000000000
     33771       281  POPC      C21           -12.4455149092       57.4923157027      -13.7273787118  MEMB      281             0.0000000000
     33772       281  POPC      O22           -11.3537643003       57.5161102803      -14.2904259062  MEMB      281             0.0000000000
     33773       281  POPC      C22           -12.7907836374       56.7457587927      -12.4356110340  MEMB      281             0.0000000000
     33774       281  POPC      H2R           -13.8993067415       56.7504992361      -12.3616180769  MEMB      281             0.0000000000
     33775       281  POPC      H2S           -12.2774080371       57.2510741116      -11.5897842671  MEMB      281             0.0000000000
     33776       281  POPC      C3            -14.6792463805       59.6885578117      -15.6817797026  MEMB      281             0.0000000000
     33777       281  POPC      HX            -14.7423578865       60.0370879790      -16.7348060495  MEMB      281             0.0000000000
     33778       281  POPC      HY            -14.6223022235       60.5822147181      -15.0241659708  MEMB      281             0.0000000000
     33779       281  POPC      O31           -15.9003505023       58.9390377001      -15.4953904046  MEMB      281             0.0000000000
     33780       281  POPC      C31           -16.5537596544       59.2557428927      -14.4543219366  MEMB      281             0.0000000000
     33781       281  POPC      O32           -16.3476049730       60.1713899793      -13.6701932145  MEMB      281             0.0000000000
     33782       281  POPC      C32           -17.7131136959       58.2242373867      -14.2617879201  MEMB      281             0.0000000000
     33783       281  POPC      H2X           -17.7622380787       57.4478166510      -15.0549328390  MEMB      281             0.0000000000
     33784       281  POPC      H2Y           -18.6487206519       58.8212459408      -14.2113784715  MEMB      281             0.0000000000
     33785       281  POPC      C23           -12.4496077533       55.2322429339      -12.4284889866  MEMB      281             0.0000000000
     33786       281  POPC      H3R           -11.4088212098       55.0652562727      -12.7794876784  MEMB      281             0.0000000000
     33787       281  POPC      H3S           -13.1606525669       54.7679448339      -13.1448431647  MEMB      281             0.0000000000
     33788       281  POPC      C24           -12.7562412745       54.4464601058      -11.1963020437  MEMB      281             0.0000000000
     33789       281  POPC      H4R           -12.2338013074       54.8014632500      -10.2823271667  MEMB      281             0.0000000000
     33790       281  POPC      H4S           -12.4722152340       53.3792089528      -11.3172368923  MEMB      281             0.0000000000
     33791       281  POPC      C25           -14.2633930672       54.3850580230      -11.0148473796  MEMB      281             0.0000000000
     33792       281  POPC      H5R           -14.8648559310       54.3089258767      -11.9458507942  MEMB      281             0.0000000000
     33793       281  POPC      H5S           -14.5494430473       55.3404628941      -10.5252585137  MEMB      281             0.0000000000
     33794       281  POPC      C26           -14.6609360813       53.1583324040      -10.1684320449  MEMB      281             0.0000000000
     33795       281  POPC      H6R           -13.7135716871       52.6702725688       -9.8543942649  MEMB      281             0.0000000000
     33796       281  POPC      H6S           -15.1604907548       52.5610927167      -10.9609412857  MEMB      281             0.0000000000
     33797       281  POPC      C27           -15.5084519183       53.5005474545       -8.9246519186  MEMB      281             0.0000000000
     33798       281  POPC      H7R           -16.4105834930       52.8576933572       -9.0096149851  MEMB      281             0.0000000000
     33799       281  POPC      H7S           -15.7371099587       54.5877061409       -8.9357237404  MEMB      281             0.0000000000
     33800       281  POPC      C28           -14.8003301762       53.1880824693       -7.6442445261  MEMB      281             0.0000000000
     33801       281  POPC      H8R           -14.6207947188       52.0919779827       -7.6696031438  MEMB      281             0.0000000000
     33802       281  POPC      H8S           -15.4716713885       53.2833589843       -6.7641619397  MEMB      281             0.0000000000
     33803       281  POPC      C29           -13.6376233477       54.1330183612       -7.3824489767  MEMB      281             0.0000000000
     33804       281  POPC      H91           -13.7291678570       55.1234582781       -7.8521806955  MEMB      281             0.0000000000
     33805       281  POPC      C210          -12.7565544032       53.9506480312       -6.4023239729  MEMB      281             0.0000000000
     33806       281  POPC      H101          -12.0504216743       54.7799124009       -6.2483844751  MEMB      281             0.0000000000
     33807       281  POPC      C211          -12.6812074794       52.8069129678       -5.3385109496  MEMB      281             0.0000000000
     33808       281  POPC      H11R          -11.5978787122       52.6651049384       -5.1369913511  MEMB      281             0.0000000000
     33809       281  POPC      H11S          -13.1120201501       51.9032978375       -5.8203840920  MEMB      281             0.0000000000
     33810       281  POPC      C212          -13.4380749174       53.1881572593       -3.9453292184  MEMB      281             0.0000000000
     33811       281  POPC      H12R          -12.8149023764       53.8040318884       -3.2621923346  MEMB      281             0.0000000000
     33812       281  POPC      H12S          -13.6106302175       52.2415407864       -3.3899349116  MEMB      281             0.0000000000
     33813       281  POPC      C213          -14.8425793740       53.8211044736       -4.1349262344  MEMB      281             0.0000000000
     33814       281  POPC      H13R          -15.4645816572       53.3134096117       -4.9028329151  MEMB      281             0.0000000000
     33815       281  POPC      H13S          -14.6594318114       54.8688505249       -4.4558716575  MEMB      281             0.0000000000
     33816       281  POPC      C214          -15.6303512314       53.9068239002       -2.7804648687  MEMB      281             0.0000000000
     33817       281  POPC      H14R          -16.1622246372       52.9369654902       -2.6765107142  MEMB      281             0.0000000000
     33818       281  POPC      H14S          -16.4193632527       54.6561359847       -3.0047698934  MEMB      281             0.0000000000
     33819       281  POPC      C215          -14.8802837447       54.3071596863       -1.4506062052  MEMB      281             0.0000000000
     33820       281  POPC      H15R          -14.2981154740       55.2370699682       -1.6257286927  MEMB      281             0.0000000000
     33821       281  POPC      H15S          -14.1851715164       53.4492978228       -1.3272663491  MEMB      281             0.0000000000
     33822       281  POPC      C216          -15.8838062982       54.6513818704       -0.3073494267  MEMB      281             0.0000000000
     33823       281  POPC      H16R          -16.6796630209       55.2873339701       -0.7506306756  MEMB      281             0.0000000000
     33824       281  POPC      H16S          -15.3333283868       55.2902217211        0.4159602359  MEMB      281             0.0000000000
     33825       281  POPC      C217          -16.5402775994       53.4595611372        0.3933620251  MEMB      281             0.0000000000
     33826       281  POPC      H17R          -15.9171790638       52.6791829795        0.8802691864  MEMB      281             0.0000000000
     33827       281  POPC      H17S          -17.1545493493       52.8450881244       -0.2990347391  MEMB      281             0.0000000000
     33828       281  POPC      C218          -17.7037882205       53.9136711717        1.3332015172  MEMB      281             0.0000000000
     33829       281  POPC      H18R          -18.2923741464       53.0281142635        1.6551914003  MEMB      281             0.0000000000
     33830       281  POPC      H18S          -18.4082097857       54.6298729719        0.8586847032  MEMB      281             0.0000000000
     33831       281  POPC      H18T          -17.2946960954       54.3316021271        2.2778171448  MEMB      281             0.0000000000
     33832       281  POPC      C33           -17.6502913804       57.5343136628      -12.9188028278  MEMB      281             0.0000000000
     33833       281  POPC      H3X           -16.6456318882       57.1662706896      -12.6195961838  MEMB      281             0.0000000000
     33834       281  POPC      H3Y           -18.2753920469       56.6242627245      -13.0428084032  MEMB      281             0.0000000000
     33835       281  POPC      C34           -18.1853859007       58.3780116245      -11.7009055510  MEMB      281             0.0000000000
     33836       281  POPC      H4X           -19.2414158399       58.6401040573      -11.9254705909  MEMB      281             0.0000000000
     33837       281  POPC      H4Y           -17.7663367129       59.4066705579      -11.6768299175  MEMB      281             0.0000000000
     33838       281  POPC      C35           -18.2317327896       57.6402248619      -10.3011579758  MEMB      281             0.0000000000
     33839       281  POPC      H5X           -17.1608839401       57.4881171403      -10.0472542228  MEMB      281             0.0000000000
     33840       281  POPC      H5Y           -18.6491142341       56.6277406310      -10.4882131075  MEMB      281             0.0000000000
     33841       281  POPC      C36           -19.1015774578       58.2732536919       -9.1787029784  MEMB      281             0.0000000000
     33842       281  POPC      H6X           -20.0484856828       58.6539598485       -9.6177347025  MEMB      281             0.0000000000
     33843       281  POPC      H6Y           -18.5655454166       59.0999457493       -8.6653113070  MEMB      281             0.0000000000
     33844       281  POPC      C37           -19.3183969456       57.2484761370       -7.9805450136  MEMB      281             0.0000000000
     33845       281  POPC      H7X           -20.0825261276       56.4950162734       -8.2681669453  MEMB      281             0.0000000000
     33846       281  POPC      H7Y           -19.8115226043       57.6902023518       -7.0883423395  MEMB      281             0.0000000000
     33847       281  POPC      C38           -17.9926680341       56.5673749882       -7.4765827507  MEMB      281             0.0000000000
     33848       281  POPC      H8X           -17.3890406330       56.1914074873       -8.3301655738  MEMB      281             0.0000000000
     33849       281  POPC      H8Y           -18.2502098310       55.6199223681       -6.9566528996  MEMB      281             0.0000000000
     33850       281  POPC      C39           -17.1311790988       57.5625291861       -6.6711444026  MEMB      281             0.0000000000
     33851       281  POPC      H9X           -17.4756357686       57.7924674496       -5.6402225659  MEMB      281             0.0000000000
     33852       281  POPC      H9Y           -17.1579527933       58.5206637195       -7.2329118009  MEMB      281             0.0000000000
     33853       281  POPC      C310          -15.7433124599       57.0527686126       -6.5208964792  MEMB      281             0.0000000000
     33854       281  POPC      H10X          -15.4270537299       56.5966068735       -7.4832981010  MEMB      281             0.0000000000
     33855       281  POPC      H10Y          -15.8353216883       56.1941943456       -5.8218214106  MEMB      281             0.0000000000
     33856       281  POPC      C311          -14.6757876516       58.0703734832       -6.0463476065  MEMB      281             0.0000000000
     33857       281  POPC      H11X          -14.9060579150       58.9661460681       -6.6618857047  MEMB      281             0.0000000000
     33858       281  POPC      H11Y          -13.7294734215       57.5235292421       -6.2457764949  MEMB      281             0.0000000000
     33859       281  POPC      C312          -14.8481863193       58.4245415725       -4.6057042402  MEMB      281             0.0000000000
     33860       281  POPC      H12X          -14.7793657184       57.4588159567       -4.0607653772  MEMB      281             0.0000000000
     33861       281  POPC      H12Y          -15.8648064772       58.8701567507       -4.5584653940  MEMB      281             0.0000000000
     33862       281  POPC      C313          -13.8702930912       59.3565540463       -3.8747502795  MEMB      281             0.0000000000
     33863       281  POPC      H13X          -13.8497524035       60.3165863383       -4.4335316681  MEMB      281             0.0000000000
     33864       281  POPC      H13Y          -12.8928642244       58.8306535723       -3.9235601040  MEMB      281             0.0000000000
     33865       281  POPC      C314          -14.2534987922       59.5791293231       -2.3821669264  MEMB      281             0.0000000000
     33866       281  POPC      H14X          -15.2201922410       60.1253187137       -2.4209220801  MEMB      281             0.0000000000
     33867       281  POPC      H14Y          -13.4808061374       60.2026506311       -1.8836799525  MEMB      281             0.0000000000
     33868       281  POPC      C315          -14.4509852202       58.2846450970       -1.5494326484  MEMB      281             0.0000000000
     33869       281  POPC      H15X          -13.4558990161       57.7924237173       -1.5923564720  MEMB      281             0.0000000000
     33870       281  POPC      H15Y          -15.2058996922       57.6212235357       -2.0230314625  MEMB      281             0.0000000000
     33871       281  POPC      C316          -14.9472061018       58.5233768277       -0.1705573571  MEMB      281             0.0000000000
     33872       281  POPC      H16X          -14.2218136988       59.1636401059        0.3755096935  MEMB      281             0.0000000000
     33873       281  POPC      H16Y          -15.0296579695       57.5033455185        0.2619458008  MEMB      281             0.0000000000
     33874       281  POPC      H16Z          -15.9742771416       58.9363020616       -0.2650983895  MEMB      281             0.0000000000
     33875       282  POPC      N              47.3211584731      -33.3209505609      -20.5656766282  MEMB      282             0.0000000000
     33876       282  POPC      C12            47.0242595685      -33.5902766666      -19.1248702045  MEMB      282             0.0000000000
     33877       282  POPC      H12A           46.1166998246      -34.1712846673      -19.0530018918  MEMB      282             0.0000000000
     33878       282  POPC      H12B           46.8524201449      -32.6548872947      -18.6130909650  MEMB      282             0.0000000000
     33879       282  POPC      C13            48.2506852180      -32.1701701885      -20.8846469217  MEMB      282             0.0000000000
     33880       282  POPC      H13A           49.0564158990      -32.1180779984      -20.1673710949  MEMB      282             0.0000000000
     33881       282  POPC      H13B           48.5510605994      -32.2060000556      -21.9214161118  MEMB      282             0.0000000000
     33882       282  POPC      H13C           47.6961896619      -31.2612673433      -20.7034548014  MEMB      282             0.0000000000
     33883       282  POPC      C14            47.8676891978      -34.5229096940      -21.2312329794  MEMB      282             0.0000000000
     33884       282  POPC      H14A           48.0025021418      -34.3179111433      -22.2829937530  MEMB      282             0.0000000000
     33885       282  POPC      H14B           48.7861175490      -34.8972092224      -20.8036942684  MEMB      282             0.0000000000
     33886       282  POPC      H14C           47.2414293832      -35.4026868624      -21.2174181007  MEMB      282             0.0000000000
     33887       282  POPC      C15            45.9993624623      -33.0293092079      -21.1846752974  MEMB      282             0.0000000000
     33888       282  POPC      H15A           46.2174077092      -32.3401361873      -21.9871070805  MEMB      282             0.0000000000
     33889       282  POPC      H15B           45.4841333241      -32.3729473568      -20.4990165571  MEMB      282             0.0000000000
     33890       282  POPC      H15C           45.4411986625      -33.9026770913      -21.4881248807  MEMB      282             0.0000000000
     33891       282  POPC      C11            48.0937763950      -34.4597598135      -18.2763076389  MEMB      282             0.0000000000
     33892       282  POPC      H11A           47.8598211186      -35.5305226974      -18.4581118897  MEMB      282             0.0000000000
     33893       282  POPC      H11B           47.8288535602      -34.0611133533      -17.2737020782  MEMB      282             0.0000000000
     33894       282  POPC      P              50.5190703977      -33.9450787787      -17.5175789311  MEMB      282             0.0000000000
     33895       282  POPC      O13            50.1506549254      -32.7401931487      -16.7952513859  MEMB      282             0.0000000000
     33896       282  POPC      O14            51.8648951521      -33.9693885751      -18.0713228670  MEMB      282             0.0000000000
     33897       282  POPC      O12            49.4351886154      -34.1366001484      -18.7368509818  MEMB      282             0.0000000000
     33898       282  POPC      O11            50.2066861581      -35.2610386327      -16.6115861902  MEMB      282             0.0000000000
     33899       282  POPC      C1             50.6289694789      -36.5782579991      -17.0168955156  MEMB      282             0.0000000000
     33900       282  POPC      HA             51.6004437501      -36.4868496944      -17.5481236580  MEMB      282             0.0000000000
     33901       282  POPC      HB             49.8885699738      -37.0769072953      -17.6783170762  MEMB      282             0.0000000000
     33902       282  POPC      C2             50.8848625939      -37.3214869990      -15.6427615948  MEMB      282             0.0000000000
     33903       282  POPC      HS             51.2874263752      -38.3035267496      -15.9711841679  MEMB      282             0.0000000000
     33904       282  POPC      O21            49.7188547424      -37.4495200548      -14.8773981230  MEMB      282             0.0000000000
     33905       282  POPC      C21            48.6554817435      -38.1563124368      -15.3286695805  MEMB      282             0.0000000000
     33906       282  POPC      O22            48.6162100267      -38.8053341491      -16.3455499923  MEMB      282             0.0000000000
     33907       282  POPC      C22            47.7002914185      -38.2547987972      -14.1639701421  MEMB      282             0.0000000000
     33908       282  POPC      H2R            47.7965095859      -39.1910334202      -13.5736077832  MEMB      282             0.0000000000
     33909       282  POPC      H2S            46.7141725569      -38.4448390185      -14.6391283604  MEMB      282             0.0000000000
     33910       282  POPC      C3             51.8825840139      -36.5968892732      -14.7136661110  MEMB      282             0.0000000000
     33911       282  POPC      HX             52.8308640159      -36.5317673720      -15.2888579401  MEMB      282             0.0000000000
     33912       282  POPC      HY             52.0267767144      -37.2049583796      -13.7950905066  MEMB      282             0.0000000000
     33913       282  POPC      O31            51.3998095487      -35.3561592550      -14.2637360315  MEMB      282             0.0000000000
     33914       282  POPC      C31            52.4116046232      -34.5178714359      -13.9293816835  MEMB      282             0.0000000000
     33915       282  POPC      O32            53.5996282018      -34.7099621678      -13.9973920932  MEMB      282             0.0000000000
     33916       282  POPC      C32            51.7671721705      -33.1801141411      -13.4930599543  MEMB      282             0.0000000000
     33917       282  POPC      H2X            51.0581643688      -32.9215848582      -14.3084075677  MEMB      282             0.0000000000
     33918       282  POPC      H2Y            52.5957012118      -32.4600779788      -13.3215694520  MEMB      282             0.0000000000
     33919       282  POPC      C23            47.7800078456      -37.0218190921      -13.2689839749  MEMB      282             0.0000000000
     33920       282  POPC      H3R            47.6349370231      -36.1808021674      -13.9802970994  MEMB      282             0.0000000000
     33921       282  POPC      H3S            48.8035440590      -36.9612335321      -12.8411708595  MEMB      282             0.0000000000
     33922       282  POPC      C24            46.7324172447      -36.9890142253      -12.1484765258  MEMB      282             0.0000000000
     33923       282  POPC      H4R            46.8659305755      -37.9782314800      -11.6606810867  MEMB      282             0.0000000000
     33924       282  POPC      H4S            45.6879385806      -36.9339254308      -12.5231097847  MEMB      282             0.0000000000
     33925       282  POPC      C25            46.9148534823      -35.8032633950      -11.2237105132  MEMB      282             0.0000000000
     33926       282  POPC      H5R            46.8241006296      -34.8668963683      -11.8147278859  MEMB      282             0.0000000000
     33927       282  POPC      H5S            47.9907226285      -35.7520205916      -10.9513126459  MEMB      282             0.0000000000
     33928       282  POPC      C26            45.9954246880      -35.8610272917      -10.0130971223  MEMB      282             0.0000000000
     33929       282  POPC      H6R            46.1528260754      -36.7804739216       -9.4096371796  MEMB      282             0.0000000000
     33930       282  POPC      H6S            44.9360655566      -35.8145574846      -10.3446385446  MEMB      282             0.0000000000
     33931       282  POPC      C27            46.0994152762      -34.6292810634       -9.0570645113  MEMB      282             0.0000000000
     33932       282  POPC      H7R            45.1082094757      -34.5167096936       -8.5680251072  MEMB      282             0.0000000000
     33933       282  POPC      H7S            46.3648608032      -33.7726618197       -9.7128566134  MEMB      282             0.0000000000
     33934       282  POPC      C28            47.0982045284      -34.8020849866       -7.9397412912  MEMB      282             0.0000000000
     33935       282  POPC      H8R            46.9061053989      -35.8199900290       -7.5381337623  MEMB      282             0.0000000000
     33936       282  POPC      H8S            46.7703845113      -34.0670166233       -7.1738890328  MEMB      282             0.0000000000
     33937       282  POPC      C29            48.5583039480      -34.5868594548       -8.4367804845  MEMB      282             0.0000000000
     33938       282  POPC      H91            48.6858397465      -33.5828392013       -8.8676838707  MEMB      282             0.0000000000
     33939       282  POPC      C210           49.5294410344      -35.4901129468       -8.4641568302  MEMB      282             0.0000000000
     33940       282  POPC      H101           50.4878525206      -35.2091864936       -8.9251648498  MEMB      282             0.0000000000
     33941       282  POPC      C211           49.4174503315      -36.9173963530       -8.0328770924  MEMB      282             0.0000000000
     33942       282  POPC      H11R           49.9597598741      -37.5308077914       -8.7838418000  MEMB      282             0.0000000000
     33943       282  POPC      H11S           48.3581893886      -37.1762222928       -8.2457066274  MEMB      282             0.0000000000
     33944       282  POPC      C212           49.8732254431      -37.3434833347       -6.6690894541  MEMB      282             0.0000000000
     33945       282  POPC      H12R           50.6172742575      -36.6226957001       -6.2676203697  MEMB      282             0.0000000000
     33946       282  POPC      H12S           50.4378416119      -38.2968115629       -6.5872682131  MEMB      282             0.0000000000
     33947       282  POPC      C213           48.6868173059      -37.4027703139       -5.6253831584  MEMB      282             0.0000000000
     33948       282  POPC      H13R           48.4012786364      -36.3381768028       -5.4859940119  MEMB      282             0.0000000000
     33949       282  POPC      H13S           49.1050674662      -37.8099250482       -4.6800716534  MEMB      282             0.0000000000
     33950       282  POPC      C214           47.4750826283      -38.2559189152       -6.1256232268  MEMB      282             0.0000000000
     33951       282  POPC      H14R           47.9349542919      -39.1787649718       -6.5393792924  MEMB      282             0.0000000000
     33952       282  POPC      H14S           46.8123633743      -37.7463065334       -6.8573472855  MEMB      282             0.0000000000
     33953       282  POPC      C215           46.7255643367      -38.7984090865       -4.9502827466  MEMB      282             0.0000000000
     33954       282  POPC      H15R           47.4603986246      -39.3865075382       -4.3599607058  MEMB      282             0.0000000000
     33955       282  POPC      H15S           45.8672940261      -39.4490799456       -5.2229005813  MEMB      282             0.0000000000
     33956       282  POPC      C216           46.1836198118      -37.6331232743       -4.0176928451  MEMB      282             0.0000000000
     33957       282  POPC      H16R           45.8237810183      -36.7681919501       -4.6149627319  MEMB      282             0.0000000000
     33958       282  POPC      H16S           47.0919318166      -37.2578141784       -3.4995877010  MEMB      282             0.0000000000
     33959       282  POPC      C217           45.2605463415      -38.4079168788       -3.0432502634  MEMB      282             0.0000000000
     33960       282  POPC      H17R           45.9668618683      -39.0881978090       -2.5210852412  MEMB      282             0.0000000000
     33961       282  POPC      H17S           44.5035764759      -39.0138009898       -3.5856730830  MEMB      282             0.0000000000
     33962       282  POPC      C218           44.5782583285      -37.4284121003       -2.0635511742  MEMB      282             0.0000000000
     33963       282  POPC      H18R           44.1204760348      -37.9063359789       -1.1711680482  MEMB      282             0.0000000000
     33964       282  POPC      H18S           43.8204003287      -36.8469804962       -2.6309207750  MEMB      282             0.0000000000
     33965       282  POPC      H18T           45.3357762892      -36.6930106989       -1.7176148424  MEMB      282             0.0000000000
     33966       282  POPC      C33            51.0054877691      -33.3346097311      -12.1859574295  MEMB      282             0.0000000000
     33967       282  POPC      H3X            51.6439018182      -33.5051648862      -11.2928394537  MEMB      282             0.0000000000
     33968       282  POPC      H3Y            50.3218164166      -34.2094106488      -12.2264262419  MEMB      282             0.0000000000
     33969       282  POPC      C34            50.2860842977      -32.0403292820      -12.0111794451  MEMB      282             0.0000000000
     33970       282  POPC      H4X            49.5831354082      -31.8311094544      -12.8456917222  MEMB      282             0.0000000000
     33971       282  POPC      H4Y            51.1108842717      -31.2979830498      -11.9568831336  MEMB      282             0.0000000000
     33972       282  POPC      C35            49.5311561638      -31.8950061195      -10.7085724028  MEMB      282             0.0000000000
     33973       282  POPC      H5X            50.2139747646      -32.3574422398       -9.9641040388  MEMB      282             0.0000000000
     33974       282  POPC      H5Y            48.5829766278      -32.4740090093      -10.7142406751  MEMB      282             0.0000000000
     33975       282  POPC      C36            49.3686380865      -30.3248498506      -10.3955860110  MEMB      282             0.0000000000
     33976       282  POPC      H6X            49.3242636178      -29.7194460233      -11.3260901903  MEMB      282             0.0000000000
     33977       282  POPC      H6Y            50.2244672878      -29.8927166251       -9.8342136717  MEMB      282             0.0000000000
     33978       282  POPC      C37            48.2163384945      -30.0050480649       -9.3904216269  MEMB      282             0.0000000000
     33979       282  POPC      H7X            47.2827246233      -30.3023754999       -9.9141416171  MEMB      282             0.0000000000
     33980       282  POPC      H7Y            48.1639889172      -28.9110385343       -9.2040771990  MEMB      282             0.0000000000
     33981       282  POPC      C38            48.2544937031      -30.7007719614       -8.0513441528  MEMB      282             0.0000000000
     33982       282  POPC      H8X            48.5201931634      -31.7646691928       -8.2298033077  MEMB      282             0.0000000000
     33983       282  POPC      H8Y            47.3824622771      -30.6796072202       -7.3632784578  MEMB      282             0.0000000000
     33984       282  POPC      C39            49.3557473918      -30.0626289863       -7.2544293937  MEMB      282             0.0000000000
     33985       282  POPC      H9X            48.9040362759      -29.1053312763       -6.9169993914  MEMB      282             0.0000000000
     33986       282  POPC      H9Y            50.2770065225      -29.8396743974       -7.8339925692  MEMB      282             0.0000000000
     33987       282  POPC      C310           49.7616709832      -30.7541428060       -5.9643446319  MEMB      282             0.0000000000
     33988       282  POPC      H10X           48.8680017326      -30.7531663220       -5.3042877001  MEMB      282             0.0000000000
     33989       282  POPC      H10Y           50.5129888383      -30.1011441318       -5.4709532826  MEMB      282             0.0000000000
     33990       282  POPC      C311           50.4867647467      -32.1755241177       -6.1149398952  MEMB      282             0.0000000000
     33991       282  POPC      H11X           51.2198983893      -31.9702767008       -6.9240807112  MEMB      282             0.0000000000
     33992       282  POPC      H11Y           49.7442899107      -32.9886574853       -6.2628127830  MEMB      282             0.0000000000
     33993       282  POPC      C312           51.2646759419      -32.6841201959       -4.8368076745  MEMB      282             0.0000000000
     33994       282  POPC      H12X           50.5146336308      -32.5929804804       -4.0222827778  MEMB      282             0.0000000000
     33995       282  POPC      H12Y           52.1349997833      -32.0300396990       -4.6153657737  MEMB      282             0.0000000000
     33996       282  POPC      C313           51.5605223477      -34.1667834266       -4.8498446476  MEMB      282             0.0000000000
     33997       282  POPC      H13X           52.3866658417      -34.2619430672       -5.5865611867  MEMB      282             0.0000000000
     33998       282  POPC      H13Y           50.6249944600      -34.6302405171       -5.2297340566  MEMB      282             0.0000000000
     33999       282  POPC      C314           51.8761067599      -34.8084248406       -3.4897042596  MEMB      282             0.0000000000
     34000       282  POPC      H14X           50.9856975742      -34.6922378378       -2.8354925284  MEMB      282             0.0000000000
     34001       282  POPC      H14Y           52.6450005926      -34.2747952646       -2.8910697517  MEMB      282             0.0000000000
     34002       282  POPC      C315           51.9903406576      -36.4052712131       -3.4628656112  MEMB      282             0.0000000000
     34003       282  POPC      H15X           52.7945775060      -36.7051281185       -4.1682803228  MEMB      282             0.0000000000
     34004       282  POPC      H15Y           50.9938958829      -36.8172575022       -3.7306075601  MEMB      282             0.0000000000
     34005       282  POPC      C316           52.4828180804      -37.0255696054       -2.1490176216  MEMB      282             0.0000000000
     34006       282  POPC      H16X           51.8573303622      -36.7284357797       -1.2802262637  MEMB      282             0.0000000000
     34007       282  POPC      H16Y           53.5590649157      -36.8252646595       -1.9595658790  MEMB      282             0.0000000000
     34008       282  POPC      H16Z           52.4213615770      -38.1347170151       -2.1306811125  MEMB      282             0.0000000000
     34009       283  POPC      N             -47.2966661395       36.7559551988      -19.9424777682  MEMB      283             0.0000000000
     34010       283  POPC      C12           -47.4701499008       38.2736285352      -20.1769239564  MEMB      283             0.0000000000
     34011       283  POPC      H12A          -48.1368596308       38.6053721153      -19.3947191450  MEMB      283             0.0000000000
     34012       283  POPC      H12B          -48.0036906373       38.2592526420      -21.1158208746  MEMB      283             0.0000000000
     34013       283  POPC      C13           -46.6436992848       36.5938980927      -18.5789405377  MEMB      283             0.0000000000
     34014       283  POPC      H13A          -47.1373166864       37.0796445827      -17.7502112003  MEMB      283             0.0000000000
     34015       283  POPC      H13B          -46.6470810233       35.5315805590      -18.3843387102  MEMB      283             0.0000000000
     34016       283  POPC      H13C          -45.6070368418       36.8740782843      -18.6939624008  MEMB      283             0.0000000000
     34017       283  POPC      C14           -48.6794851107       36.1631814022      -19.8710363811  MEMB      283             0.0000000000
     34018       283  POPC      H14A          -49.0950299770       36.0555650882      -20.8620667289  MEMB      283             0.0000000000
     34019       283  POPC      H14B          -48.6806166110       35.1978875035      -19.3866740862  MEMB      283             0.0000000000
     34020       283  POPC      H14C          -49.2835415862       36.8310622781      -19.2748393641  MEMB      283             0.0000000000
     34021       283  POPC      C15           -46.4604332745       36.1034630163      -20.9657916247  MEMB      283             0.0000000000
     34022       283  POPC      H15A          -45.5155999470       36.6046956841      -20.8159399906  MEMB      283             0.0000000000
     34023       283  POPC      H15B          -46.8762947033       36.2367054464      -21.9535699321  MEMB      283             0.0000000000
     34024       283  POPC      H15C          -46.3302935786       35.0720861718      -20.6730025427  MEMB      283             0.0000000000
     34025       283  POPC      C11           -46.2500898435       39.1967211807      -20.2333222132  MEMB      283             0.0000000000
     34026       283  POPC      H11A          -46.5687800798       40.2473350217      -20.4035221299  MEMB      283             0.0000000000
     34027       283  POPC      H11B          -45.7214406772       38.7210451313      -21.0868931801  MEMB      283             0.0000000000
     34028       283  POPC      P             -45.7312297563       40.0727559278      -17.8483538193  MEMB      283             0.0000000000
     34029       283  POPC      O13           -46.9011477488       39.5812002309      -17.0478268767  MEMB      283             0.0000000000
     34030       283  POPC      O14           -45.6933362530       41.5003278755      -18.2416344874  MEMB      283             0.0000000000
     34031       283  POPC      O12           -45.3855440882       39.1432247181      -19.1134833217  MEMB      283             0.0000000000
     34032       283  POPC      O11           -44.4371119774       39.6933527375      -16.9802090385  MEMB      283             0.0000000000
     34033       283  POPC      C1            -43.1202782072       40.0341408333      -17.5512301069  MEMB      283             0.0000000000
     34034       283  POPC      HA            -43.1047943454       41.1450328622      -17.5512862255  MEMB      283             0.0000000000
     34035       283  POPC      HB            -43.0120015659       39.7230833307      -18.6122863232  MEMB      283             0.0000000000
     34036       283  POPC      C2            -41.9851690176       39.5836350466      -16.6442032316  MEMB      283             0.0000000000
     34037       283  POPC      HS            -41.1010338957       39.5596609903      -17.3165505875  MEMB      283             0.0000000000
     34038       283  POPC      O21           -42.2932225114       38.2554723967      -16.2695285163  MEMB      283             0.0000000000
     34039       283  POPC      C21           -42.1158683833       37.2865941691      -17.1772937687  MEMB      283             0.0000000000
     34040       283  POPC      O22           -41.9097591409       37.3672021891      -18.3396097802  MEMB      283             0.0000000000
     34041       283  POPC      C22           -42.0557919678       35.9364134588      -16.4370392111  MEMB      283             0.0000000000
     34042       283  POPC      H2R           -41.0005511367       35.6046913323      -16.3333651072  MEMB      283             0.0000000000
     34043       283  POPC      H2S           -42.5981974027       35.2765356230      -17.1474464616  MEMB      283             0.0000000000
     34044       283  POPC      C3            -41.8234848507       40.4088406911      -15.3829163728  MEMB      283             0.0000000000
     34045       283  POPC      HX            -41.7116415436       41.4906529028      -15.6098401193  MEMB      283             0.0000000000
     34046       283  POPC      HY            -40.8179943255       40.2167872350      -14.9511465728  MEMB      283             0.0000000000
     34047       283  POPC      O31           -42.8704678452       40.2291845460      -14.4255320917  MEMB      283             0.0000000000
     34048       283  POPC      C31           -42.5646110579       39.2768392770      -13.4268595675  MEMB      283             0.0000000000
     34049       283  POPC      O32           -41.5132419723       38.8092692649      -13.1641153528  MEMB      283             0.0000000000
     34050       283  POPC      C32           -43.8675147906       39.0441228201      -12.5841117748  MEMB      283             0.0000000000
     34051       283  POPC      H2X           -43.8723098227       39.6517198488      -11.6539912102  MEMB      283             0.0000000000
     34052       283  POPC      H2Y           -43.8599446190       37.9893486026      -12.2352346365  MEMB      283             0.0000000000
     34053       283  POPC      C23           -42.9752461981       35.9881192666      -15.2589139891  MEMB      283             0.0000000000
     34054       283  POPC      H3R           -43.9888401674       36.3597524344      -15.5212813189  MEMB      283             0.0000000000
     34055       283  POPC      H3S           -42.5092039600       36.7462975458      -14.5938641554  MEMB      283             0.0000000000
     34056       283  POPC      C24           -43.3818654877       34.6272408990      -14.6535723505  MEMB      283             0.0000000000
     34057       283  POPC      H4R           -42.4583311409       34.1256237296      -14.2933150739  MEMB      283             0.0000000000
     34058       283  POPC      H4S           -43.8582212371       34.0001881987      -15.4372883627  MEMB      283             0.0000000000
     34059       283  POPC      C25           -44.4549125938       34.6371983932      -13.5543872128  MEMB      283             0.0000000000
     34060       283  POPC      H5R           -45.0341192243       33.7098408318      -13.3572861804  MEMB      283             0.0000000000
     34061       283  POPC      H5S           -45.2154864295       35.3667230267      -13.9060149719  MEMB      283             0.0000000000
     34062       283  POPC      C26           -43.8581737349       35.1698464825      -12.2267746822  MEMB      283             0.0000000000
     34063       283  POPC      H6R           -44.7009463436       35.2755516285      -11.5106172280  MEMB      283             0.0000000000
     34064       283  POPC      H6S           -43.3734217536       36.1572819545      -12.3826835674  MEMB      283             0.0000000000
     34065       283  POPC      C27           -42.7762292406       34.2996996541      -11.6003766517  MEMB      283             0.0000000000
     34066       283  POPC      H7R           -42.0032298315       34.2215074730      -12.3945296767  MEMB      283             0.0000000000
     34067       283  POPC      H7S           -43.2598199789       33.3180234949      -11.4086132251  MEMB      283             0.0000000000
     34068       283  POPC      C28           -42.2070871946       34.7410553687      -10.1695105176  MEMB      283             0.0000000000
     34069       283  POPC      H8R           -41.8240865086       33.8812120268       -9.5793408030  MEMB      283             0.0000000000
     34070       283  POPC      H8S           -43.1357771773       35.0536855895       -9.6459478129  MEMB      283             0.0000000000
     34071       283  POPC      C29           -41.2687051388       35.9066854828      -10.2127844453  MEMB      283             0.0000000000
     34072       283  POPC      H91           -40.4844236158       35.7544054867      -10.9689013327  MEMB      283             0.0000000000
     34073       283  POPC      C210          -41.3196592333       37.1567385984       -9.5388488736  MEMB      283             0.0000000000
     34074       283  POPC      H101          -40.6221539395       37.9626795655       -9.8107782772  MEMB      283             0.0000000000
     34075       283  POPC      C211          -42.3418243201       37.5219273164       -8.5312086082  MEMB      283             0.0000000000
     34076       283  POPC      H11R          -43.3003518502       36.9611752002       -8.5644199029  MEMB      283             0.0000000000
     34077       283  POPC      H11S          -42.6568803153       38.5824428298       -8.6330296120  MEMB      283             0.0000000000
     34078       283  POPC      C212          -41.9122266063       37.3550192299       -7.1179020042  MEMB      283             0.0000000000
     34079       283  POPC      H12R          -41.0344780471       38.0019245422       -6.9048492893  MEMB      283             0.0000000000
     34080       283  POPC      H12S          -41.5661619446       36.3144546916       -6.9396169110  MEMB      283             0.0000000000
     34081       283  POPC      C213          -43.0687074274       37.6452646529       -6.1127334464  MEMB      283             0.0000000000
     34082       283  POPC      H13R          -44.0359964156       37.1531287717       -6.3503780062  MEMB      283             0.0000000000
     34083       283  POPC      H13S          -43.2619805807       38.7393241649       -6.1129870050  MEMB      283             0.0000000000
     34084       283  POPC      C214          -42.6851142759       37.0431892556       -4.7112115021  MEMB      283             0.0000000000
     34085       283  POPC      H14R          -42.5038464794       35.9654546789       -4.9110892838  MEMB      283             0.0000000000
     34086       283  POPC      H14S          -43.4615297448       37.1927738735       -3.9307468367  MEMB      283             0.0000000000
     34087       283  POPC      C215          -41.4330558832       37.6002744989       -4.0722520568  MEMB      283             0.0000000000
     34088       283  POPC      H15R          -41.2399984444       38.6926529422       -4.1335657165  MEMB      283             0.0000000000
     34089       283  POPC      H15S          -40.6259213513       37.2200577073       -4.7342870133  MEMB      283             0.0000000000
     34090       283  POPC      C216          -41.2509703105       37.2194546475       -2.5496140521  MEMB      283             0.0000000000
     34091       283  POPC      H16R          -40.2005113351       37.3479193581       -2.2114514765  MEMB      283             0.0000000000
     34092       283  POPC      H16S          -41.4216268367       36.1351026690       -2.3782161870  MEMB      283             0.0000000000
     34093       283  POPC      C217          -42.1458786654       37.9872441744       -1.5608986742  MEMB      283             0.0000000000
     34094       283  POPC      H17R          -43.1833995789       38.1140998481       -1.9374332247  MEMB      283             0.0000000000
     34095       283  POPC      H17S          -41.6377400593       38.9619086258       -1.3992037128  MEMB      283             0.0000000000
     34096       283  POPC      C218          -42.2437137035       37.2610914882       -0.2165059652  MEMB      283             0.0000000000
     34097       283  POPC      H18R          -43.1187326066       37.5145921765        0.4194197838  MEMB      283             0.0000000000
     34098       283  POPC      H18S          -41.4632486493       37.6338183078        0.4808249473  MEMB      283             0.0000000000
     34099       283  POPC      H18T          -42.2739650460       36.1560202833       -0.3270666869  MEMB      283             0.0000000000
     34100       283  POPC      C33           -45.1628838476       39.2096005073      -13.3544410320  MEMB      283             0.0000000000
     34101       283  POPC      H3X           -45.3037076278       38.4902507682      -14.1893216509  MEMB      283             0.0000000000
     34102       283  POPC      H3Y           -45.1787665827       40.2393646369      -13.7711598643  MEMB      283             0.0000000000
     34103       283  POPC      C34           -46.4927163348       39.1847074803      -12.6191376582  MEMB      283             0.0000000000
     34104       283  POPC      H4X           -46.6503662689       38.2883986101      -11.9818793500  MEMB      283             0.0000000000
     34105       283  POPC      H4Y           -47.3380727148       39.1489009174      -13.3391457383  MEMB      283             0.0000000000
     34106       283  POPC      C35           -46.7157499615       40.5077620016      -11.8756898070  MEMB      283             0.0000000000
     34107       283  POPC      H5X           -46.5487394603       41.4715848672      -12.4024477555  MEMB      283             0.0000000000
     34108       283  POPC      H5Y           -45.9233627860       40.3857601335      -11.1065610303  MEMB      283             0.0000000000
     34109       283  POPC      C36           -48.1090204920       40.5903518191      -11.1022804206  MEMB      283             0.0000000000
     34110       283  POPC      H6X           -48.9491201610       40.2570493030      -11.7483941807  MEMB      283             0.0000000000
     34111       283  POPC      H6Y           -48.2713865940       41.6719511404      -10.9070848566  MEMB      283             0.0000000000
     34112       283  POPC      C37           -48.1923511503       39.8428418113       -9.7442004942  MEMB      283             0.0000000000
     34113       283  POPC      H7X           -47.9728067690       38.7976258206      -10.0502153796  MEMB      283             0.0000000000
     34114       283  POPC      H7Y           -49.2014515542       39.9993344439       -9.3065390859  MEMB      283             0.0000000000
     34115       283  POPC      C38           -47.1865062919       40.1025123747       -8.6573428109  MEMB      283             0.0000000000
     34116       283  POPC      H8X           -47.1344734561       41.1345441453       -8.2492698738  MEMB      283             0.0000000000
     34117       283  POPC      H8Y           -46.2016510243       39.8506438472       -9.1056101838  MEMB      283             0.0000000000
     34118       283  POPC      C39           -47.3602787748       39.1789830480       -7.4854494955  MEMB      283             0.0000000000
     34119       283  POPC      H9X           -46.3705209452       38.9981579273       -7.0142775282  MEMB      283             0.0000000000
     34120       283  POPC      H9Y           -47.7716242941       38.2151147771       -7.8543309886  MEMB      283             0.0000000000
     34121       283  POPC      C310          -48.2827080627       39.6846058033       -6.3103270539  MEMB      283             0.0000000000
     34122       283  POPC      H10X          -49.3020300959       39.7536641374       -6.7468286995  MEMB      283             0.0000000000
     34123       283  POPC      H10Y          -47.9979044570       40.6936557844       -5.9428674553  MEMB      283             0.0000000000
     34124       283  POPC      C311          -48.4469239141       38.8243370532       -5.1314306662  MEMB      283             0.0000000000
     34125       283  POPC      H11X          -48.7130894976       37.7830332302       -5.4127902341  MEMB      283             0.0000000000
     34126       283  POPC      H11Y          -49.3334710882       39.1240933375       -4.5326809059  MEMB      283             0.0000000000
     34127       283  POPC      C312          -47.2976599358       38.8242013044       -4.0588787202  MEMB      283             0.0000000000
     34128       283  POPC      H12X          -46.3313746219       38.6853170733       -4.5892792854  MEMB      283             0.0000000000
     34129       283  POPC      H12Y          -47.4784717797       37.9244544564       -3.4327129211  MEMB      283             0.0000000000
     34130       283  POPC      C313          -47.0839062321       40.1719952474       -3.3257072122  MEMB      283             0.0000000000
     34131       283  POPC      H13X          -47.9823016356       40.1968782067       -2.6725708849  MEMB      283             0.0000000000
     34132       283  POPC      H13Y          -47.0668647537       41.0202691492       -4.0429672588  MEMB      283             0.0000000000
     34133       283  POPC      C314          -45.7945331722       40.2023330828       -2.4790653379  MEMB      283             0.0000000000
     34134       283  POPC      H14X          -45.0042539548       40.0095099581       -3.2357674134  MEMB      283             0.0000000000
     34135       283  POPC      H14Y          -45.6905941926       39.3206411455       -1.8111300218  MEMB      283             0.0000000000
     34136       283  POPC      C315          -45.5309429588       41.5092808736       -1.7548833811  MEMB      283             0.0000000000
     34137       283  POPC      H15X          -46.2963315108       41.6710190623       -0.9659978590  MEMB      283             0.0000000000
     34138       283  POPC      H15Y          -45.7018377413       42.4308281585       -2.3514304375  MEMB      283             0.0000000000
     34139       283  POPC      C316          -44.1807469215       41.5115188010       -1.1616336244  MEMB      283             0.0000000000
     34140       283  POPC      H16X          -43.4862441702       41.1539158159       -1.9516385262  MEMB      283             0.0000000000
     34141       283  POPC      H16Y          -44.1470094138       40.7864786120       -0.3205033143  MEMB      283             0.0000000000
     34142       283  POPC      H16Z          -43.8475402302       42.4800312206       -0.7311936085  MEMB      283             0.0000000000
     34143       284  POPC      N              48.3810191807       34.0837859751      -21.0166551976  MEMB      284             0.0000000000
     34144       284  POPC      C12            47.8876777101       35.4446481810      -20.8070974130  MEMB      284             0.0000000000
     34145       284  POPC      H12A           46.8204710896       35.4780495269      -20.9694377979  MEMB      284             0.0000000000
     34146       284  POPC      H12B           48.3946281678       36.0199033616      -21.5676779346  MEMB      284             0.0000000000
     34147       284  POPC      C13            47.4856855133       33.0211570074      -20.2959951412  MEMB      284             0.0000000000
     34148       284  POPC      H13A           46.4890062565       33.0481490716      -20.7110875505  MEMB      284             0.0000000000
     34149       284  POPC      H13B           47.9667031229       32.1147879696      -20.6329183384  MEMB      284             0.0000000000
     34150       284  POPC      H13C           47.4859492537       33.0457760537      -19.2162757524  MEMB      284             0.0000000000
     34151       284  POPC      C14            48.3553162700       33.8058147756      -22.5221232439  MEMB      284             0.0000000000
     34152       284  POPC      H14A           47.4013606190       34.2410611201      -22.7808298946  MEMB      284             0.0000000000
     34153       284  POPC      H14B           49.0898433548       34.4545744987      -22.9759744222  MEMB      284             0.0000000000
     34154       284  POPC      H14C           48.4146881606       32.7615223439      -22.7910626801  MEMB      284             0.0000000000
     34155       284  POPC      C15            49.8771037771       34.0320023019      -20.5217364820  MEMB      284             0.0000000000
     34156       284  POPC      H15A           49.9658199612       34.3248384815      -19.4859872172  MEMB      284             0.0000000000
     34157       284  POPC      H15B           50.4567490991       34.6441282810      -21.1968016270  MEMB      284             0.0000000000
     34158       284  POPC      H15C           50.3487020107       33.0711801217      -20.6660128841  MEMB      284             0.0000000000
     34159       284  POPC      C11            48.2814364551       36.1292426218      -19.4145982996  MEMB      284             0.0000000000
     34160       284  POPC      H11A           47.7163222947       37.0560523224      -19.1779744628  MEMB      284             0.0000000000
     34161       284  POPC      H11B           49.3274724924       36.4535869319      -19.6014952565  MEMB      284             0.0000000000
     34162       284  POPC      P              48.4371420615       35.5052730787      -16.7956299890  MEMB      284             0.0000000000
     34163       284  POPC      O13            49.5349801185       34.6578135994      -16.2113025012  MEMB      284             0.0000000000
     34164       284  POPC      O14            47.0775615721       35.4226098571      -16.1482739547  MEMB      284             0.0000000000
     34165       284  POPC      O12            48.1881188253       35.1435392812      -18.2829055325  MEMB      284             0.0000000000
     34166       284  POPC      O11            48.8773449107       36.9750111861      -16.9836822496  MEMB      284             0.0000000000
     34167       284  POPC      C1             50.1342343034       37.5413446473      -16.6474710332  MEMB      284             0.0000000000
     34168       284  POPC      HA             50.3020706857       38.4268538359      -17.2971057725  MEMB      284             0.0000000000
     34169       284  POPC      HB             50.9296467689       36.8252195702      -16.9454725934  MEMB      284             0.0000000000
     34170       284  POPC      C2             50.2360648648       38.0373216588      -15.1806744880  MEMB      284             0.0000000000
     34171       284  POPC      HS             51.1861475641       38.5965843285      -15.0432375866  MEMB      284             0.0000000000
     34172       284  POPC      O21            50.1690489790       36.9519800358      -14.2359362160  MEMB      284             0.0000000000
     34173       284  POPC      C21            51.2499658190       36.3227149645      -13.9084094549  MEMB      284             0.0000000000
     34174       284  POPC      O22            52.4215534067       36.6916031509      -14.1959448847  MEMB      284             0.0000000000
     34175       284  POPC      C22            50.8973635342       35.0282012935      -13.2300135274  MEMB      284             0.0000000000
     34176       284  POPC      H2R            50.5226347042       34.3069875473      -13.9874767445  MEMB      284             0.0000000000
     34177       284  POPC      H2S            50.0941605721       35.1487270034      -12.4719504990  MEMB      284             0.0000000000
     34178       284  POPC      C3             49.0799183502       39.0390130633      -14.9399932169  MEMB      284             0.0000000000
     34179       284  POPC      HX             48.1420301562       38.5191004341      -15.2304708222  MEMB      284             0.0000000000
     34180       284  POPC      HY             49.2423021779       39.9561603747      -15.5456280644  MEMB      284             0.0000000000
     34181       284  POPC      O31            49.1077879603       39.5401552690      -13.6184380132  MEMB      284             0.0000000000
     34182       284  POPC      C31            48.0966778266       39.1527442537      -12.8250364822  MEMB      284             0.0000000000
     34183       284  POPC      O32            47.3037668014       38.2777740236      -12.9577356438  MEMB      284             0.0000000000
     34184       284  POPC      C32            48.0474790040       40.1529842843      -11.6998543617  MEMB      284             0.0000000000
     34185       284  POPC      H2X            46.9992827444       40.4282268544      -11.4552172801  MEMB      284             0.0000000000
     34186       284  POPC      H2Y            48.6245671689       41.0582074331      -11.9859677817  MEMB      284             0.0000000000
     34187       284  POPC      C23            52.0629540439       34.3126986214      -12.5836974229  MEMB      284             0.0000000000
     34188       284  POPC      H3R            52.9016957287       34.1498289120      -13.2938435521  MEMB      284             0.0000000000
     34189       284  POPC      H3S            51.6936477577       33.3067545818      -12.2904226940  MEMB      284             0.0000000000
     34190       284  POPC      C24            52.6108111592       34.9521638691      -11.3046860350  MEMB      284             0.0000000000
     34191       284  POPC      H4R            52.9562769600       35.9880009556      -11.5096642079  MEMB      284             0.0000000000
     34192       284  POPC      H4S            53.5185231037       34.4172444655      -10.9522067371  MEMB      284             0.0000000000
     34193       284  POPC      C25            51.5735406341       35.0391720484      -10.1049667258  MEMB      284             0.0000000000
     34194       284  POPC      H5R            51.0142587526       34.0792760193      -10.1161308229  MEMB      284             0.0000000000
     34195       284  POPC      H5S            50.8659590238       35.8712044014      -10.3083661986  MEMB      284             0.0000000000
     34196       284  POPC      C26            52.0797352198       35.2993300725       -8.6580634579  MEMB      284             0.0000000000
     34197       284  POPC      H6R            52.6184025789       36.2684020568       -8.7291845479  MEMB      284             0.0000000000
     34198       284  POPC      H6S            52.7216515499       34.4268631605       -8.4109491112  MEMB      284             0.0000000000
     34199       284  POPC      C27            50.9100558729       35.6279649651       -7.7625813468  MEMB      284             0.0000000000
     34200       284  POPC      H7R            50.3139826408       34.6943799641       -7.6763438822  MEMB      284             0.0000000000
     34201       284  POPC      H7S            50.3913619769       36.4842248554       -8.2443456020  MEMB      284             0.0000000000
     34202       284  POPC      C28            51.2981730188       36.0334706949       -6.3220225927  MEMB      284             0.0000000000
     34203       284  POPC      H8R            51.9482982470       35.2932434975       -5.8084836812  MEMB      284             0.0000000000
     34204       284  POPC      H8S            50.3377210217       36.1159302592       -5.7697066622  MEMB      284             0.0000000000
     34205       284  POPC      C29            52.0078634988       37.3407720995       -6.1873896753  MEMB      284             0.0000000000
     34206       284  POPC      H91            53.0914681353       37.2614660757       -6.3591797886  MEMB      284             0.0000000000
     34207       284  POPC      C210           51.4724378452       38.5569411380       -5.8730068502  MEMB      284             0.0000000000
     34208       284  POPC      H101           52.1244598126       39.4318183545       -6.0124961039  MEMB      284             0.0000000000
     34209       284  POPC      C211           50.1006747719       38.9784996353       -5.5411581587  MEMB      284             0.0000000000
     34210       284  POPC      H11R           49.3501449975       38.1805647564       -5.7264304351  MEMB      284             0.0000000000
     34211       284  POPC      H11S           49.7885652872       39.8153120936       -6.2019560694  MEMB      284             0.0000000000
     34212       284  POPC      C212           49.9341465240       39.5127119094       -4.1490375367  MEMB      284             0.0000000000
     34213       284  POPC      H12R           48.9653021193       40.0172622600       -3.9463293058  MEMB      284             0.0000000000
     34214       284  POPC      H12S           50.7654357774       40.2315601047       -3.9861375721  MEMB      284             0.0000000000
     34215       284  POPC      C213           50.1041111300       38.4232147356       -3.1023372548  MEMB      284             0.0000000000
     34216       284  POPC      H13R           50.8608793289       37.6644640091       -3.3954575484  MEMB      284             0.0000000000
     34217       284  POPC      H13S           49.1313419536       37.8866641448       -3.0899143187  MEMB      284             0.0000000000
     34218       284  POPC      C214           50.3399316021       38.8961047166       -1.6016112938  MEMB      284             0.0000000000
     34219       284  POPC      H14R           50.1303810755       38.0352333122       -0.9313054810  MEMB      284             0.0000000000
     34220       284  POPC      H14S           49.4930326488       39.5949614494       -1.4322528708  MEMB      284             0.0000000000
     34221       284  POPC      C215           51.7182744196       39.4950771653       -1.2391912362  MEMB      284             0.0000000000
     34222       284  POPC      H15R           51.8073663746       39.5556392783       -0.1334260909  MEMB      284             0.0000000000
     34223       284  POPC      H15S           51.7970120147       40.5045515828       -1.6964474288  MEMB      284             0.0000000000
     34224       284  POPC      C216           52.9055182962       38.6414378323       -1.7300703410  MEMB      284             0.0000000000
     34225       284  POPC      H16R           53.8231198894       39.1584262826       -1.3764459679  MEMB      284             0.0000000000
     34226       284  POPC      H16S           52.9670394374       38.4663479138       -2.8254606605  MEMB      284             0.0000000000
     34227       284  POPC      C217           52.9181348202       37.1350780238       -1.2065736326  MEMB      284             0.0000000000
     34228       284  POPC      H17R           53.7471054629       36.5185538091       -1.6152604397  MEMB      284             0.0000000000
     34229       284  POPC      H17S           51.9865350629       36.6701134505       -1.5941948514  MEMB      284             0.0000000000
     34230       284  POPC      C218           53.0232896820       36.9410799867        0.3261151533  MEMB      284             0.0000000000
     34231       284  POPC      H18R           53.9173478829       37.4211451339        0.7783520157  MEMB      284             0.0000000000
     34232       284  POPC      H18S           53.1675022031       35.8464597592        0.4499304642  MEMB      284             0.0000000000
     34233       284  POPC      H18T           52.1089176219       37.3274704023        0.8250598611  MEMB      284             0.0000000000
     34234       284  POPC      C33            48.4529143508       39.5934287382      -10.3444971751  MEMB      284             0.0000000000
     34235       284  POPC      H3X            48.8888183194       40.4011934161       -9.7185374860  MEMB      284             0.0000000000
     34236       284  POPC      H3Y            49.3299145374       38.9432033600      -10.5504063834  MEMB      284             0.0000000000
     34237       284  POPC      C34            47.4066081030       38.7159290374       -9.5191217549  MEMB      284             0.0000000000
     34238       284  POPC      H4X            46.4393090370       39.2487584476       -9.3976890141  MEMB      284             0.0000000000
     34239       284  POPC      H4Y            47.9074012884       38.5477949829       -8.5417488531  MEMB      284             0.0000000000
     34240       284  POPC      C35            47.2487424780       37.3105192543      -10.0519593514  MEMB      284             0.0000000000
     34241       284  POPC      H5X            48.1066429717       37.0486135572      -10.7074995879  MEMB      284             0.0000000000
     34242       284  POPC      H5Y            46.4113981082       37.3380289564      -10.7816294839  MEMB      284             0.0000000000
     34243       284  POPC      C36            47.0789985701       36.2786081174       -8.9571725055  MEMB      284             0.0000000000
     34244       284  POPC      H6X            48.0762035608       36.0025256371       -8.5525967026  MEMB      284             0.0000000000
     34245       284  POPC      H6Y            46.7415640506       35.3904496954       -9.5330490416  MEMB      284             0.0000000000
     34246       284  POPC      C37            46.0721897329       36.4803111317       -7.7813659376  MEMB      284             0.0000000000
     34247       284  POPC      H7X            45.2576895527       36.9688093441       -8.3578024801  MEMB      284             0.0000000000
     34248       284  POPC      H7Y            46.5278838621       37.2960581555       -7.1803490720  MEMB      284             0.0000000000
     34249       284  POPC      C38            45.6229881891       35.3972849746       -6.8646696971  MEMB      284             0.0000000000
     34250       284  POPC      H8X            45.4747516752       34.4940519017       -7.4943663910  MEMB      284             0.0000000000
     34251       284  POPC      H8Y            44.7191350245       35.6824938544       -6.2849929164  MEMB      284             0.0000000000
     34252       284  POPC      C39            46.8088426303       34.9917908469       -5.8352469356  MEMB      284             0.0000000000
     34253       284  POPC      H9X            47.7936261803       34.8909076697       -6.3395732152  MEMB      284             0.0000000000
     34254       284  POPC      H9Y            46.5385323298       34.0469211957       -5.3171019762  MEMB      284             0.0000000000
     34255       284  POPC      C310           46.7917496590       35.9476030232       -4.5768907170  MEMB      284             0.0000000000
     34256       284  POPC      H10X           46.6550910110       36.9859981355       -4.9475398976  MEMB      284             0.0000000000
     34257       284  POPC      H10Y           47.7409780511       35.9616521626       -3.9997518203  MEMB      284             0.0000000000
     34258       284  POPC      C311           45.6179888571       35.6103102083       -3.6037003391  MEMB      284             0.0000000000
     34259       284  POPC      H11X           45.8282254180       34.6048569032       -3.1803979037  MEMB      284             0.0000000000
     34260       284  POPC      H11Y           44.6311720075       35.6784060523       -4.1095424833  MEMB      284             0.0000000000
     34261       284  POPC      C312           45.5474383800       36.5355214356       -2.3751133668  MEMB      284             0.0000000000
     34262       284  POPC      H12X           44.4884610804       36.4691955382       -2.0457363951  MEMB      284             0.0000000000
     34263       284  POPC      H12Y           45.7119690414       37.6091401549       -2.6087658377  MEMB      284             0.0000000000
     34264       284  POPC      C313           46.5018346358       36.1759341546       -1.1205896594  MEMB      284             0.0000000000
     34265       284  POPC      H13X           46.3405363419       36.9898374098       -0.3817634310  MEMB      284             0.0000000000
     34266       284  POPC      H13Y           47.5334084994       36.4029278522       -1.4650462774  MEMB      284             0.0000000000
     34267       284  POPC      C314           46.3266926254       34.7254946213       -0.5911010123  MEMB      284             0.0000000000
     34268       284  POPC      H14X           46.8626672125       34.0994740365       -1.3361852001  MEMB      284             0.0000000000
     34269       284  POPC      H14Y           45.2439614878       34.4764833633       -0.5883525146  MEMB      284             0.0000000000
     34270       284  POPC      C315           46.6728509891       34.6734078065        0.9043866408  MEMB      284             0.0000000000
     34271       284  POPC      H15X           46.0583535235       35.4752989834        1.3666468202  MEMB      284             0.0000000000
     34272       284  POPC      H15Y           47.7414850441       34.9748131636        0.9430812414  MEMB      284             0.0000000000
     34273       284  POPC      C316           46.4791572934       33.3877338208        1.5090941182  MEMB      284             0.0000000000
     34274       284  POPC      H16X           45.4347698556       33.0093876563        1.5298252029  MEMB      284             0.0000000000
     34275       284  POPC      H16Y           46.7220882032       33.3803680716        2.5931839779  MEMB      284             0.0000000000
     34276       284  POPC      H16Z           47.1143629785       32.5699129676        1.1065967039  MEMB      284             0.0000000000
     34277       285  POPC      N              26.8914214096      -51.3315941783      -18.8605398021  MEMB      285             0.0000000000
     34278       285  POPC      C12            27.3861676712      -52.3589884827      -19.8890413968  MEMB      285             0.0000000000
     34279       285  POPC      H12A           27.6878097667      -51.8590865070      -20.7976171569  MEMB      285             0.0000000000
     34280       285  POPC      H12B           26.5302138296      -52.9634343413      -20.1505527516  MEMB      285             0.0000000000
     34281       285  POPC      C13            26.1845552143      -51.9142903461      -17.7283811320  MEMB      285             0.0000000000
     34282       285  POPC      H13A           25.9181464349      -51.1091586747      -17.0596590022  MEMB      285             0.0000000000
     34283       285  POPC      H13B           25.4411666896      -52.5618486187      -18.1693368922  MEMB      285             0.0000000000
     34284       285  POPC      H13C           26.7774469735      -52.6955805334      -17.2762030927  MEMB      285             0.0000000000
     34285       285  POPC      C14            28.0037381344      -50.5319930871      -18.3579203502  MEMB      285             0.0000000000
     34286       285  POPC      H14A           28.3783293928      -50.0400944317      -19.2434242223  MEMB      285             0.0000000000
     34287       285  POPC      H14B           27.6112289954      -49.7511422176      -17.7234061276  MEMB      285             0.0000000000
     34288       285  POPC      H14C           28.7126803299      -51.2362339112      -17.9482304299  MEMB      285             0.0000000000
     34289       285  POPC      C15            25.8486684407      -50.4016835885      -19.6048663329  MEMB      285             0.0000000000
     34290       285  POPC      H15A           26.2605374547      -49.8626722985      -20.4452417012  MEMB      285             0.0000000000
     34291       285  POPC      H15B           25.4867020092      -49.7981991001      -18.7856064987  MEMB      285             0.0000000000
     34292       285  POPC      H15C           24.9987942862      -50.9634077112      -19.9634466502  MEMB      285             0.0000000000
     34293       285  POPC      C11            28.4922508250      -53.3541403994      -19.3556408982  MEMB      285             0.0000000000
     34294       285  POPC      H11A           28.5276562267      -54.1927514306      -20.0835138860  MEMB      285             0.0000000000
     34295       285  POPC      H11B           28.1938204600      -53.7615678836      -18.3660636573  MEMB      285             0.0000000000
     34296       285  POPC      P              31.0937420165      -53.5859359091      -19.0866498136  MEMB      285             0.0000000000
     34297       285  POPC      O13            32.3212896971      -52.7033413193      -18.9977591425  MEMB      285             0.0000000000
     34298       285  POPC      O14            31.2222871398      -54.6948368533      -20.1406291759  MEMB      285             0.0000000000
     34299       285  POPC      O12            29.7261424148      -52.7072269796      -19.3514571727  MEMB      285             0.0000000000
     34300       285  POPC      O11            30.7244394423      -54.2667390569      -17.6271147859  MEMB      285             0.0000000000
     34301       285  POPC      C1             31.3577597613      -53.8382050574      -16.4715397164  MEMB      285             0.0000000000
     34302       285  POPC      HA             31.4427327545      -52.7350052499      -16.3712856494  MEMB      285             0.0000000000
     34303       285  POPC      HB             32.3845648758      -54.2572298099      -16.4051270793  MEMB      285             0.0000000000
     34304       285  POPC      C2             30.6417705400      -54.4044301640      -15.1830965630  MEMB      285             0.0000000000
     34305       285  POPC      HS             30.5612402151      -55.4995135304      -15.3522952806  MEMB      285             0.0000000000
     34306       285  POPC      O21            29.2670001511      -53.9659721974      -15.0680271713  MEMB      285             0.0000000000
     34307       285  POPC      C21            28.3707378873      -54.8788998428      -14.5017758018  MEMB      285             0.0000000000
     34308       285  POPC      O22            28.6861574417      -55.8788804296      -13.9087900335  MEMB      285             0.0000000000
     34309       285  POPC      C22            26.9545876500      -54.3170791790      -14.7285426836  MEMB      285             0.0000000000
     34310       285  POPC      H2R            26.7262547085      -54.5662867316      -15.7868814389  MEMB      285             0.0000000000
     34311       285  POPC      H2S            26.8405376282      -53.2140437398      -14.6605247761  MEMB      285             0.0000000000
     34312       285  POPC      C3             31.3558653856      -54.1847397923      -13.8697460984  MEMB      285             0.0000000000
     34313       285  POPC      HX             32.4372008027      -54.3840479850      -14.0288398172  MEMB      285             0.0000000000
     34314       285  POPC      HY             30.9315137738      -54.8143744127      -13.0586935039  MEMB      285             0.0000000000
     34315       285  POPC      O31            31.2943911033      -52.7991228862      -13.5549693300  MEMB      285             0.0000000000
     34316       285  POPC      C31            30.4105926308      -52.1975904971      -12.8060348439  MEMB      285             0.0000000000
     34317       285  POPC      O32            29.3991555590      -52.6937111627      -12.3607363337  MEMB      285             0.0000000000
     34318       285  POPC      C32            31.0687248017      -50.8398803136      -12.4155823997  MEMB      285             0.0000000000
     34319       285  POPC      H2X            31.4789302856      -50.4226395874      -13.3600203713  MEMB      285             0.0000000000
     34320       285  POPC      H2Y            31.8391293151      -50.9478889745      -11.6224040538  MEMB      285             0.0000000000
     34321       285  POPC      C23            25.8784795358      -55.0072249465      -13.8038467886  MEMB      285             0.0000000000
     34322       285  POPC      H3R            26.0708914522      -56.0908197115      -13.6517906855  MEMB      285             0.0000000000
     34323       285  POPC      H3S            24.9377264091      -54.9902344029      -14.3946219217  MEMB      285             0.0000000000
     34324       285  POPC      C24            25.5929555120      -54.2393074854      -12.5350818630  MEMB      285             0.0000000000
     34325       285  POPC      H4R            24.6453593438      -54.7296108016      -12.2252679954  MEMB      285             0.0000000000
     34326       285  POPC      H4S            25.2789261176      -53.2168271104      -12.8354823186  MEMB      285             0.0000000000
     34327       285  POPC      C25            26.5963241620      -54.2466479855      -11.3738524955  MEMB      285             0.0000000000
     34328       285  POPC      H5R            26.4183865525      -53.3750681998      -10.7082641570  MEMB      285             0.0000000000
     34329       285  POPC      H5S            27.6206263523      -54.0133586018      -11.7353795564  MEMB      285             0.0000000000
     34330       285  POPC      C26            26.6806623179      -55.5466473342      -10.6819379655  MEMB      285             0.0000000000
     34331       285  POPC      H6R            26.9162615723      -56.3446903616      -11.4181050104  MEMB      285             0.0000000000
     34332       285  POPC      H6S            25.7001541141      -55.6889736865      -10.1792770934  MEMB      285             0.0000000000
     34333       285  POPC      C27            27.7975882330      -55.7039147870       -9.6167025218  MEMB      285             0.0000000000
     34334       285  POPC      H7R            27.6548028689      -56.7035295992       -9.1533414498  MEMB      285             0.0000000000
     34335       285  POPC      H7S            27.7970313330      -54.8829287822       -8.8681694819  MEMB      285             0.0000000000
     34336       285  POPC      C28            29.2565077804      -55.6521606345      -10.3331666429  MEMB      285             0.0000000000
     34337       285  POPC      H8R            29.5843647727      -54.6523137008      -10.6897289744  MEMB      285             0.0000000000
     34338       285  POPC      H8S            29.1055052349      -56.2708833948      -11.2434970613  MEMB      285             0.0000000000
     34339       285  POPC      C29            30.3455228571      -56.2112311043       -9.4154339299  MEMB      285             0.0000000000
     34340       285  POPC      H91            30.6205228928      -57.2503362913       -9.6491765075  MEMB      285             0.0000000000
     34341       285  POPC      C210           30.8164408255      -55.7319543660       -8.2766001537  MEMB      285             0.0000000000
     34342       285  POPC      H101           31.1758587334      -56.4510370130       -7.5257739460  MEMB      285             0.0000000000
     34343       285  POPC      C211           30.2528705332      -54.4285846493       -7.6923106728  MEMB      285             0.0000000000
     34344       285  POPC      H11R           29.9029153807      -54.6694180800       -6.6657381235  MEMB      285             0.0000000000
     34345       285  POPC      H11S           29.4784001709      -53.8736622950       -8.2637808310  MEMB      285             0.0000000000
     34346       285  POPC      C212           31.3365440654      -53.2307755281       -7.5033946528  MEMB      285             0.0000000000
     34347       285  POPC      H12R           30.8185620196      -52.2907868949       -7.2162753873  MEMB      285             0.0000000000
     34348       285  POPC      H12S           31.9838547095      -53.0998586940       -8.3967985921  MEMB      285             0.0000000000
     34349       285  POPC      C213           32.2512475437      -53.5263254680       -6.2648770294  MEMB      285             0.0000000000
     34350       285  POPC      H13R           33.3095486903      -53.1894246977       -6.2934722592  MEMB      285             0.0000000000
     34351       285  POPC      H13S           32.2156803493      -54.6070430891       -6.0097191268  MEMB      285             0.0000000000
     34352       285  POPC      C214           31.9618306692      -52.6410161610       -4.9571192115  MEMB      285             0.0000000000
     34353       285  POPC      H14R           30.9160415175      -52.8430970682       -4.6411929811  MEMB      285             0.0000000000
     34354       285  POPC      H14S           32.0745738706      -51.5432885385       -5.0859758923  MEMB      285             0.0000000000
     34355       285  POPC      C215           32.8634377271      -53.0458111392       -3.7642464651  MEMB      285             0.0000000000
     34356       285  POPC      H15R           33.8635765686      -52.9956333618       -4.2454170294  MEMB      285             0.0000000000
     34357       285  POPC      H15S           32.6084902962      -54.1202640147       -3.6422874263  MEMB      285             0.0000000000
     34358       285  POPC      C216           32.8312006245      -52.2308192506       -2.4433747909  MEMB      285             0.0000000000
     34359       285  POPC      H16R           33.4762290657      -52.7412010831       -1.6965348823  MEMB      285             0.0000000000
     34360       285  POPC      H16S           31.8412143005      -52.3228868875       -1.9476203860  MEMB      285             0.0000000000
     34361       285  POPC      C217           33.2592496052      -50.8058471255       -2.5513376484  MEMB      285             0.0000000000
     34362       285  POPC      H17R           32.7471594301      -50.3765334155       -3.4389040208  MEMB      285             0.0000000000
     34363       285  POPC      H17S           34.3634588315      -50.6855657146       -2.5753154782  MEMB      285             0.0000000000
     34364       285  POPC      C218           32.6518479676      -49.9721664587       -1.4681493705  MEMB      285             0.0000000000
     34365       285  POPC      H18R           33.2564730686      -50.0469929227       -0.5390893360  MEMB      285             0.0000000000
     34366       285  POPC      H18S           31.5933696957      -50.1612431521       -1.1885145470  MEMB      285             0.0000000000
     34367       285  POPC      H18T           32.9015177369      -48.9100901396       -1.6778631455  MEMB      285             0.0000000000
     34368       285  POPC      C33            30.0117638025      -49.9394558902      -11.7765208848  MEMB      285             0.0000000000
     34369       285  POPC      H3X            29.3623716409      -50.4259640631      -11.0176266960  MEMB      285             0.0000000000
     34370       285  POPC      H3Y            29.2640318563      -49.7134808969      -12.5665545489  MEMB      285             0.0000000000
     34371       285  POPC      C34            30.5169560465      -48.6162479690      -11.0743706321  MEMB      285             0.0000000000
     34372       285  POPC      H4X            29.6666182618      -47.9272193141      -10.8833573766  MEMB      285             0.0000000000
     34373       285  POPC      H4Y            30.9965469015      -48.0298790405      -11.8870731015  MEMB      285             0.0000000000
     34374       285  POPC      C35            31.4926112536      -48.8634123593       -9.9271816951  MEMB      285             0.0000000000
     34375       285  POPC      H5X            31.7892908277      -47.8552223845       -9.5668271811  MEMB      285             0.0000000000
     34376       285  POPC      H5Y            32.4488692953      -49.3650858022      -10.1883621026  MEMB      285             0.0000000000
     34377       285  POPC      C36            30.9597045827      -49.5336685094       -8.6163688791  MEMB      285             0.0000000000
     34378       285  POPC      H6X            31.5683536253      -49.2633460889       -7.7271029544  MEMB      285             0.0000000000
     34379       285  POPC      H6Y            31.0639217001      -50.6144889510       -8.8515006192  MEMB      285             0.0000000000
     34380       285  POPC      C37            29.5073740173      -49.1879340235       -8.1809920719  MEMB      285             0.0000000000
     34381       285  POPC      H7X            28.8519310064      -49.1314639656       -9.0762723664  MEMB      285             0.0000000000
     34382       285  POPC      H7Y            29.5151075966      -48.1394661828       -7.8136010412  MEMB      285             0.0000000000
     34383       285  POPC      C38            28.9190191829      -50.2459397402       -7.2491243073  MEMB      285             0.0000000000
     34384       285  POPC      H8X            29.4325514577      -50.1896130625       -6.2655422490  MEMB      285             0.0000000000
     34385       285  POPC      H8Y            29.1209928406      -51.2172143091       -7.7492772437  MEMB      285             0.0000000000
     34386       285  POPC      C39            27.4000996319      -50.0452511021       -6.9463116927  MEMB      285             0.0000000000
     34387       285  POPC      H9X            26.7815115235      -49.9341495398       -7.8624591516  MEMB      285             0.0000000000
     34388       285  POPC      H9Y            27.2199567901      -49.1541862429       -6.3076630654  MEMB      285             0.0000000000
     34389       285  POPC      C310           26.7100074372      -51.2136010210       -6.2210363283  MEMB      285             0.0000000000
     34390       285  POPC      H10X           26.8523704141      -52.1704576328       -6.7673692961  MEMB      285             0.0000000000
     34391       285  POPC      H10Y           25.6214615670      -50.9915496711       -6.2301036002  MEMB      285             0.0000000000
     34392       285  POPC      C311           27.2073243556      -51.4688113533       -4.7405698600  MEMB      285             0.0000000000
     34393       285  POPC      H11X           27.1629445631      -50.5450501678       -4.1249263762  MEMB      285             0.0000000000
     34394       285  POPC      H11Y           28.2829689106      -51.7457914488       -4.7162400555  MEMB      285             0.0000000000
     34395       285  POPC      C312           26.3362331411      -52.4993956735       -4.1085930562  MEMB      285             0.0000000000
     34396       285  POPC      H12X           26.4494289616      -53.4521149694       -4.6688022995  MEMB      285             0.0000000000
     34397       285  POPC      H12Y           25.2906876381      -52.1867492981       -4.3169378619  MEMB      285             0.0000000000
     34398       285  POPC      C313           26.6279925959      -52.8276245041       -2.5839468616  MEMB      285             0.0000000000
     34399       285  POPC      H13X           26.7494320084      -51.8649760177       -2.0427610209  MEMB      285             0.0000000000
     34400       285  POPC      H13Y           27.5960388500      -53.3723575852       -2.5621937497  MEMB      285             0.0000000000
     34401       285  POPC      C314           25.5300580848      -53.6322001797       -1.9706025441  MEMB      285             0.0000000000
     34402       285  POPC      H14X           25.6532704308      -54.6003712037       -2.5014369704  MEMB      285             0.0000000000
     34403       285  POPC      H14Y           24.5376539645      -53.1843146012       -2.1916323651  MEMB      285             0.0000000000
     34404       285  POPC      C315           25.6946644768      -53.8102408457       -0.4571956606  MEMB      285             0.0000000000
     34405       285  POPC      H15X           24.9838554550      -54.5904163969       -0.1102132023  MEMB      285             0.0000000000
     34406       285  POPC      H15Y           25.6166469105      -52.8478457163        0.0923760816  MEMB      285             0.0000000000
     34407       285  POPC      C316           26.9732658575      -54.3794646266        0.0656979884  MEMB      285             0.0000000000
     34408       285  POPC      H16X           27.0963147659      -55.3735688749       -0.4148620382  MEMB      285             0.0000000000
     34409       285  POPC      H16Y           27.0171562661      -54.4662563661        1.1724315142  MEMB      285             0.0000000000
     34410       285  POPC      H16Z           27.8213938721      -53.7693955752       -0.3122114500  MEMB      285             0.0000000000
     34411       286  POPC      N             -47.2811612056      -36.6403607402      -17.2241664084  MEMB      286             0.0000000000
     34412       286  POPC      C12           -48.2447638462      -37.6985960760      -17.6680099623  MEMB      286             0.0000000000
     34413       286  POPC      H12A          -49.0484284911      -37.1839933720      -18.1736847148  MEMB      286             0.0000000000
     34414       286  POPC      H12B          -48.5491655447      -38.2113299371      -16.7675414618  MEMB      286             0.0000000000
     34415       286  POPC      C13           -47.1863211298      -35.5655934248      -18.2018836336  MEMB      286             0.0000000000
     34416       286  POPC      H13A          -46.5655192662      -34.8007712645      -17.7591058513  MEMB      286             0.0000000000
     34417       286  POPC      H13B          -46.6681240788      -35.9727063046      -19.0575302655  MEMB      286             0.0000000000
     34418       286  POPC      H13C          -48.1965082212      -35.2427583017      -18.4060879363  MEMB      286             0.0000000000
     34419       286  POPC      C14           -47.8607190928      -36.1319499479      -15.9524342971  MEMB      286             0.0000000000
     34420       286  POPC      H14A          -47.4081838954      -35.1653431545      -15.7872574992  MEMB      286             0.0000000000
     34421       286  POPC      H14B          -48.9223423383      -35.9523820277      -16.0367640060  MEMB      286             0.0000000000
     34422       286  POPC      H14C          -47.6584908674      -36.7595099019      -15.0970557830  MEMB      286             0.0000000000
     34423       286  POPC      C15           -45.8541160932      -37.1203425229      -16.8939702753  MEMB      286             0.0000000000
     34424       286  POPC      H15A          -45.8928126708      -37.8832834138      -16.1305414274  MEMB      286             0.0000000000
     34425       286  POPC      H15B          -45.2955449853      -36.2552606716      -16.5683454560  MEMB      286             0.0000000000
     34426       286  POPC      H15C          -45.4674355772      -37.4300401158      -17.8536398980  MEMB      286             0.0000000000
     34427       286  POPC      C11           -47.8411242197      -38.7271253167      -18.7474191448  MEMB      286             0.0000000000
     34428       286  POPC      H11A          -48.7331084761      -39.3370248369      -19.0056971489  MEMB      286             0.0000000000
     34429       286  POPC      H11B          -47.0643285616      -39.2358074798      -18.1373765496  MEMB      286             0.0000000000
     34430       286  POPC      P             -46.4294559237      -38.9313843269      -20.9532368932  MEMB      286             0.0000000000
     34431       286  POPC      O13           -45.3856513609      -37.9810191427      -21.3820901844  MEMB      286             0.0000000000
     34432       286  POPC      O14           -47.3893016003      -39.5005668396      -22.0099138878  MEMB      286             0.0000000000
     34433       286  POPC      O12           -47.2776893104      -38.0847401241      -19.8864671938  MEMB      286             0.0000000000
     34434       286  POPC      O11           -45.8870776362      -40.1352560218      -20.0804081683  MEMB      286             0.0000000000
     34435       286  POPC      C1            -44.5394964834      -40.2271360922      -19.7927640292  MEMB      286             0.0000000000
     34436       286  POPC      HA            -44.1526010242      -39.2549384665      -19.4193139910  MEMB      286             0.0000000000
     34437       286  POPC      HB            -44.1977442530      -40.5595833912      -20.7962604689  MEMB      286             0.0000000000
     34438       286  POPC      C2            -44.1712968120      -41.3426588732      -18.7152998184  MEMB      286             0.0000000000
     34439       286  POPC      HS            -44.2356020431      -42.3725821318      -19.1269354223  MEMB      286             0.0000000000
     34440       286  POPC      O21           -45.0994860281      -41.3274614761      -17.6090594091  MEMB      286             0.0000000000
     34441       286  POPC      C21           -46.1861729985      -42.0267256326      -17.7035271912  MEMB      286             0.0000000000
     34442       286  POPC      O22           -46.5110938428      -42.5840943893      -18.6874313967  MEMB      286             0.0000000000
     34443       286  POPC      C22           -46.8981727706      -41.9511483016      -16.3424234172  MEMB      286             0.0000000000
     34444       286  POPC      H2R           -46.4689890691      -41.0990842344      -15.7731172692  MEMB      286             0.0000000000
     34445       286  POPC      H2S           -46.7620223946      -42.9744427927      -15.9317503643  MEMB      286             0.0000000000
     34446       286  POPC      C3            -42.7440432076      -41.2134619701      -18.1511860647  MEMB      286             0.0000000000
     34447       286  POPC      HX            -42.0432852993      -41.3746267707      -18.9981129127  MEMB      286             0.0000000000
     34448       286  POPC      HY            -42.6024949452      -41.9965738443      -17.3759307110  MEMB      286             0.0000000000
     34449       286  POPC      O31           -42.4431657139      -39.8305023681      -17.6715189442  MEMB      286             0.0000000000
     34450       286  POPC      C31           -42.5700841259      -39.6822780043      -16.3681766867  MEMB      286             0.0000000000
     34451       286  POPC      O32           -43.0286268480      -40.5125853410      -15.5919029315  MEMB      286             0.0000000000
     34452       286  POPC      C32           -41.9741476401      -38.3602014706      -15.9740835769  MEMB      286             0.0000000000
     34453       286  POPC      H2X           -41.8521860979      -37.6007019260      -16.7757112237  MEMB      286             0.0000000000
     34454       286  POPC      H2Y           -40.9458218266      -38.5671783435      -15.6079856756  MEMB      286             0.0000000000
     34455       286  POPC      C23           -48.4255356006      -41.6924008086      -16.5012037749  MEMB      286             0.0000000000
     34456       286  POPC      H3R           -48.8549489533      -42.5948116616      -16.9865696990  MEMB      286             0.0000000000
     34457       286  POPC      H3S           -48.4847915132      -40.7053562868      -17.0077140082  MEMB      286             0.0000000000
     34458       286  POPC      C24           -49.1466707690      -41.6000625200      -15.0884956806  MEMB      286             0.0000000000
     34459       286  POPC      H4R           -49.0216650611      -42.6019033776      -14.6248047806  MEMB      286             0.0000000000
     34460       286  POPC      H4S           -50.1873868390      -41.3914114614      -15.4166660064  MEMB      286             0.0000000000
     34461       286  POPC      C25           -48.6424253462      -40.4852517174      -14.2779284039  MEMB      286             0.0000000000
     34462       286  POPC      H5R           -48.8930597727      -39.4189439441      -14.4636462823  MEMB      286             0.0000000000
     34463       286  POPC      H5S           -47.5349299984      -40.5712518169      -14.2973960894  MEMB      286             0.0000000000
     34464       286  POPC      C26           -49.0352460929      -40.5749898695      -12.8189081287  MEMB      286             0.0000000000
     34465       286  POPC      H6R           -48.3958917360      -39.8826555642      -12.2305037451  MEMB      286             0.0000000000
     34466       286  POPC      H6S           -48.6914718174      -41.5738967448      -12.4749236353  MEMB      286             0.0000000000
     34467       286  POPC      C27           -50.5370109874      -40.1575996356      -12.5546909790  MEMB      286             0.0000000000
     34468       286  POPC      H7R           -51.1545095361      -41.0370189997      -12.8368919889  MEMB      286             0.0000000000
     34469       286  POPC      H7S           -50.7261693189      -39.2720762571      -13.1984208118  MEMB      286             0.0000000000
     34470       286  POPC      C28           -50.7905092211      -39.7528143775      -11.1436858959  MEMB      286             0.0000000000
     34471       286  POPC      H8R           -51.6528740634      -39.0554257427      -11.0781342339  MEMB      286             0.0000000000
     34472       286  POPC      H8S           -49.9305435198      -39.0697440385      -10.9757724624  MEMB      286             0.0000000000
     34473       286  POPC      C29           -50.9213039380      -40.9300525915      -10.3030495584  MEMB      286             0.0000000000
     34474       286  POPC      H91           -51.0932575029      -41.8706068677      -10.8469155025  MEMB      286             0.0000000000
     34475       286  POPC      C210          -50.8429736406      -40.9311300321       -9.0187392246  MEMB      286             0.0000000000
     34476       286  POPC      H101          -50.9530739014      -41.8737499478       -8.4625507921  MEMB      286             0.0000000000
     34477       286  POPC      C211          -50.6362818393      -39.7855789581       -8.0708737057  MEMB      286             0.0000000000
     34478       286  POPC      H11R          -51.4871068819      -39.7759656491       -7.3565027726  MEMB      286             0.0000000000
     34479       286  POPC      H11S          -50.6441042871      -38.7627990101       -8.5046728557  MEMB      286             0.0000000000
     34480       286  POPC      C212          -49.3527589309      -39.9196744475       -7.2436558707  MEMB      286             0.0000000000
     34481       286  POPC      H12R          -48.5558395598      -39.6638536127       -7.9742696561  MEMB      286             0.0000000000
     34482       286  POPC      H12S          -49.1892892829      -40.9733374285       -6.9315772940  MEMB      286             0.0000000000
     34483       286  POPC      C213          -49.4055166820      -38.8012077868       -6.1576520125  MEMB      286             0.0000000000
     34484       286  POPC      H13R          -49.8726376766      -37.9407879119       -6.6828148389  MEMB      286             0.0000000000
     34485       286  POPC      H13S          -48.3684757314      -38.4478197229       -5.9733041872  MEMB      286             0.0000000000
     34486       286  POPC      C214          -50.2652134927      -39.0614999071       -4.9932800720  MEMB      286             0.0000000000
     34487       286  POPC      H14R          -51.3126206245      -39.3153384194       -5.2631419380  MEMB      286             0.0000000000
     34488       286  POPC      H14S          -50.3389789368      -38.1461581392       -4.3679571672  MEMB      286             0.0000000000
     34489       286  POPC      C215          -49.7484694218      -40.2225425701       -4.0802827255  MEMB      286             0.0000000000
     34490       286  POPC      H15R          -49.9510553007      -41.1619478766       -4.6377751263  MEMB      286             0.0000000000
     34491       286  POPC      H15S          -50.4696848024      -40.2615350525       -3.2360984484  MEMB      286             0.0000000000
     34492       286  POPC      C216          -48.4406312414      -40.2310305608       -3.4020459303  MEMB      286             0.0000000000
     34493       286  POPC      H16R          -48.3242852914      -39.3402838025       -2.7483233423  MEMB      286             0.0000000000
     34494       286  POPC      H16S          -47.6348580984      -40.3083289651       -4.1630168629  MEMB      286             0.0000000000
     34495       286  POPC      C217          -48.2770746542      -41.5983420037       -2.6931203384  MEMB      286             0.0000000000
     34496       286  POPC      H17R          -49.2364196537      -42.1130948734       -2.4717436498  MEMB      286             0.0000000000
     34497       286  POPC      H17S          -47.8234827752      -41.3554415351       -1.7084515316  MEMB      286             0.0000000000
     34498       286  POPC      C218          -47.2857716784      -42.6098341891       -3.4612916441  MEMB      286             0.0000000000
     34499       286  POPC      H18R          -47.4526041024      -42.4669832262       -4.5503656843  MEMB      286             0.0000000000
     34500       286  POPC      H18S          -47.4996414573      -43.6576647266       -3.1602408939  MEMB      286             0.0000000000
     34501       286  POPC      H18T          -46.2811298493      -42.2929090912       -3.1083397912  MEMB      286             0.0000000000
     34502       286  POPC      C33           -42.8091009856      -37.7677979316      -14.8475518794  MEMB      286             0.0000000000
     34503       286  POPC      H3X           -43.8453775236      -38.1613959390      -14.9219305936  MEMB      286             0.0000000000
     34504       286  POPC      H3Y           -42.7371270064      -36.7101077445      -15.1798653388  MEMB      286             0.0000000000
     34505       286  POPC      C34           -42.3378473232      -37.9481256261      -13.4603859673  MEMB      286             0.0000000000
     34506       286  POPC      H4X           -41.3722756750      -37.4174731589      -13.3175556016  MEMB      286             0.0000000000
     34507       286  POPC      H4Y           -42.1302778968      -39.0091749043      -13.2046310627  MEMB      286             0.0000000000
     34508       286  POPC      C35           -43.1965329118      -37.3186477800      -12.3609966699  MEMB      286             0.0000000000
     34509       286  POPC      H5X           -43.1364512834      -36.2134359728      -12.4570067969  MEMB      286             0.0000000000
     34510       286  POPC      H5Y           -42.7772343111      -37.6788759568      -11.3972822733  MEMB      286             0.0000000000
     34511       286  POPC      C36           -44.5651961390      -38.0322262175      -12.3967820548  MEMB      286             0.0000000000
     34512       286  POPC      H6X           -44.4604077061      -39.1366246453      -12.3364116011  MEMB      286             0.0000000000
     34513       286  POPC      H6Y           -44.9825029432      -37.8985389949      -13.4177147644  MEMB      286             0.0000000000
     34514       286  POPC      C37           -45.5315108553      -37.6198102243      -11.3077583535  MEMB      286             0.0000000000
     34515       286  POPC      H7X           -46.5305216763      -38.1024542549      -11.3656635352  MEMB      286             0.0000000000
     34516       286  POPC      H7Y           -45.7969399776      -36.5519235577      -11.4610112169  MEMB      286             0.0000000000
     34517       286  POPC      C38           -45.0387695073      -37.7045369213       -9.8648070717  MEMB      286             0.0000000000
     34518       286  POPC      H8X           -45.7057493274      -37.2078177970       -9.1281056463  MEMB      286             0.0000000000
     34519       286  POPC      H8Y           -44.1263119572      -37.1134771824       -9.6359164663  MEMB      286             0.0000000000
     34520       286  POPC      C39           -44.8220275681      -39.1790073542       -9.4982545349  MEMB      286             0.0000000000
     34521       286  POPC      H9X           -43.9741549260      -39.5731476592      -10.0983266579  MEMB      286             0.0000000000
     34522       286  POPC      H9Y           -45.7833634363      -39.6458702364       -9.8018880757  MEMB      286             0.0000000000
     34523       286  POPC      C310          -44.3644271446      -39.4826890238       -8.1053342182  MEMB      286             0.0000000000
     34524       286  POPC      H10X          -43.5361972140      -38.8185401810       -7.7778250108  MEMB      286             0.0000000000
     34525       286  POPC      H10Y          -43.9083610633      -40.4900467215       -8.2128298769  MEMB      286             0.0000000000
     34526       286  POPC      C311          -45.4579699470      -39.4774366943       -7.1326712518  MEMB      286             0.0000000000
     34527       286  POPC      H11X          -46.3359219370      -40.0894256475       -7.4309842342  MEMB      286             0.0000000000
     34528       286  POPC      H11Y          -45.7996642030      -38.4541978390       -6.8670616533  MEMB      286             0.0000000000
     34529       286  POPC      C312          -44.9051687820      -40.1875038537       -5.8331419112  MEMB      286             0.0000000000
     34530       286  POPC      H12X          -44.4027557246      -41.1328002934       -6.1303237748  MEMB      286             0.0000000000
     34531       286  POPC      H12Y          -45.8206469555      -40.4702518174       -5.2707596380  MEMB      286             0.0000000000
     34532       286  POPC      C313          -43.9800014242      -39.2647501096       -5.0312714713  MEMB      286             0.0000000000
     34533       286  POPC      H13X          -43.1792689432      -38.7395717281       -5.5945972259  MEMB      286             0.0000000000
     34534       286  POPC      H13Y          -43.6555598618      -39.9583923612       -4.2263363674  MEMB      286             0.0000000000
     34535       286  POPC      C314          -44.7139133815      -37.9953901617       -4.5750163917  MEMB      286             0.0000000000
     34536       286  POPC      H14X          -45.6296522635      -38.4540666478       -4.1444831521  MEMB      286             0.0000000000
     34537       286  POPC      H14Y          -44.9771410400      -37.2960757423       -5.3972038173  MEMB      286             0.0000000000
     34538       286  POPC      C315          -44.1409533267      -37.1391054433       -3.4802347402  MEMB      286             0.0000000000
     34539       286  POPC      H15X          -44.0684937405      -37.8485009062       -2.6282788360  MEMB      286             0.0000000000
     34540       286  POPC      H15Y          -44.8977047912      -36.3691698120       -3.2178467270  MEMB      286             0.0000000000
     34541       286  POPC      C316          -42.6747716489      -36.5361023495       -3.6086121299  MEMB      286             0.0000000000
     34542       286  POPC      H16X          -42.6168285846      -35.7016262588       -2.8774401836  MEMB      286             0.0000000000
     34543       286  POPC      H16Y          -42.5485277185      -36.0382129158       -4.5937468582  MEMB      286             0.0000000000
     34544       286  POPC      H16Z          -41.7750219888      -37.1280159878       -3.3358317681  MEMB      286             0.0000000000
     34545       287  POPC      N             -55.6799040451      -27.0033310257      -19.8246298497  MEMB      287             0.0000000000
     34546       287  POPC      C12           -55.6214059918      -26.5046406200      -18.3655979492  MEMB      287             0.0000000000
     34547       287  POPC      H12A          -55.5318237629      -27.4051685296      -17.7761707858  MEMB      287             0.0000000000
     34548       287  POPC      H12B          -56.5731862515      -26.0603068623      -18.1144368182  MEMB      287             0.0000000000
     34549       287  POPC      C13           -54.2768232224      -27.2415509243      -20.2933640741  MEMB      287             0.0000000000
     34550       287  POPC      H13A          -54.2777907415      -27.6681348700      -21.2855461348  MEMB      287             0.0000000000
     34551       287  POPC      H13B          -53.6232520123      -26.3869136173      -20.3873839872  MEMB      287             0.0000000000
     34552       287  POPC      H13C          -53.8655223927      -27.9632065266      -19.6031141960  MEMB      287             0.0000000000
     34553       287  POPC      C14           -56.4981306431      -28.2683671833      -19.8741104233  MEMB      287             0.0000000000
     34554       287  POPC      H14A          -56.0298698983      -28.9742951052      -19.2041868403  MEMB      287             0.0000000000
     34555       287  POPC      H14B          -57.5136081511      -28.0394743542      -19.5863370311  MEMB      287             0.0000000000
     34556       287  POPC      H14C          -56.6016995527      -28.6483402038      -20.8797415027  MEMB      287             0.0000000000
     34557       287  POPC      C15           -56.3061764248      -25.9645581588      -20.7394409359  MEMB      287             0.0000000000
     34558       287  POPC      H15A          -57.3060530251      -25.7587045050      -20.3869197629  MEMB      287             0.0000000000
     34559       287  POPC      H15B          -56.4008323123      -26.4052620434      -21.7208788698  MEMB      287             0.0000000000
     34560       287  POPC      H15C          -55.6775400125      -25.0863904766      -20.7455797744  MEMB      287             0.0000000000
     34561       287  POPC      C11           -54.5171310719      -25.4407432494      -17.9914899104  MEMB      287             0.0000000000
     34562       287  POPC      H11A          -53.5098524361      -25.7890219429      -18.3051978284  MEMB      287             0.0000000000
     34563       287  POPC      H11B          -54.4152765522      -25.2545217399      -16.9009541124  MEMB      287             0.0000000000
     34564       287  POPC      P             -55.8958972125      -23.2358898252      -18.4052920766  MEMB      287             0.0000000000
     34565       287  POPC      O13           -56.6024402917      -23.1800405887      -19.7106339743  MEMB      287             0.0000000000
     34566       287  POPC      O14           -55.3010027421      -22.0401766107      -17.7082399548  MEMB      287             0.0000000000
     34567       287  POPC      O12           -54.7421414464      -24.2020110564      -18.6954143852  MEMB      287             0.0000000000
     34568       287  POPC      O11           -56.7479892106      -24.0264711553      -17.3917864638  MEMB      287             0.0000000000
     34569       287  POPC      C1            -58.1898299607      -23.7742949613      -17.3819668880  MEMB      287             0.0000000000
     34570       287  POPC      HA            -58.7217639883      -24.3456481949      -18.1724874790  MEMB      287             0.0000000000
     34571       287  POPC      HB            -58.5000165162      -22.7341479727      -17.6190313597  MEMB      287             0.0000000000
     34572       287  POPC      C2            -58.6784571326      -24.2026431336      -15.9309944566  MEMB      287             0.0000000000
     34573       287  POPC      HS            -57.9506047582      -23.9155256525      -15.1422515395  MEMB      287             0.0000000000
     34574       287  POPC      O21           -58.9972436637      -25.6261251741      -15.8587975316  MEMB      287             0.0000000000
     34575       287  POPC      C21           -58.0401793168      -26.4365557271      -15.4006309946  MEMB      287             0.0000000000
     34576       287  POPC      O22           -56.8956766366      -26.0780351027      -15.1492516938  MEMB      287             0.0000000000
     34577       287  POPC      C22           -58.5801048259      -27.7678274013      -15.1726075010  MEMB      287             0.0000000000
     34578       287  POPC      H2R           -58.5118502095      -28.3859251525      -16.0932687019  MEMB      287             0.0000000000
     34579       287  POPC      H2S           -59.6532722985      -27.7458219116      -14.8859917409  MEMB      287             0.0000000000
     34580       287  POPC      C3            -59.9507795547      -23.3857425059      -15.5120492109  MEMB      287             0.0000000000
     34581       287  POPC      HX            -60.8422984879      -23.5845148475      -16.1445083806  MEMB      287             0.0000000000
     34582       287  POPC      HY            -59.7773443506      -22.3017797242      -15.6831211504  MEMB      287             0.0000000000
     34583       287  POPC      O31           -60.4459664683      -23.7432064196      -14.2037919633  MEMB      287             0.0000000000
     34584       287  POPC      C31           -59.9612849508      -23.0696065798      -13.2033372900  MEMB      287             0.0000000000
     34585       287  POPC      O32           -59.3791505672      -21.9946500645      -13.1348482041  MEMB      287             0.0000000000
     34586       287  POPC      C32           -60.0974634719      -23.9988225187      -12.0277555108  MEMB      287             0.0000000000
     34587       287  POPC      H2X           -60.3017931410      -25.0011362215      -12.4612730562  MEMB      287             0.0000000000
     34588       287  POPC      H2Y           -60.8637686936      -23.6079417580      -11.3246840395  MEMB      287             0.0000000000
     34589       287  POPC      C23           -57.7680818885      -28.5944750013      -14.0677569059  MEMB      287             0.0000000000
     34590       287  POPC      H3R           -56.6630865423      -28.5335553350      -14.1657122176  MEMB      287             0.0000000000
     34591       287  POPC      H3S           -58.0220939486      -29.6629911222      -14.2353047390  MEMB      287             0.0000000000
     34592       287  POPC      C24           -58.1309984850      -28.3475608087      -12.6260623875  MEMB      287             0.0000000000
     34593       287  POPC      H4R           -59.2321752565      -28.2939948632      -12.4887263743  MEMB      287             0.0000000000
     34594       287  POPC      H4S           -57.7292773107      -27.3685684815      -12.2876613494  MEMB      287             0.0000000000
     34595       287  POPC      C25           -57.5045209742      -29.2674673189      -11.6380025014  MEMB      287             0.0000000000
     34596       287  POPC      H5R           -56.4530093700      -29.3564899019      -11.9854489538  MEMB      287             0.0000000000
     34597       287  POPC      H5S           -58.0410518728      -30.2403067671      -11.6442548674  MEMB      287             0.0000000000
     34598       287  POPC      C26           -57.5570641089      -28.7989088150      -10.1967446050  MEMB      287             0.0000000000
     34599       287  POPC      H6R           -58.6006713660      -28.7476024911       -9.8191570403  MEMB      287             0.0000000000
     34600       287  POPC      H6S           -57.1151061387      -27.7899846271      -10.3418867469  MEMB      287             0.0000000000
     34601       287  POPC      C27           -56.5525175301      -29.4589643181       -9.2477612584  MEMB      287             0.0000000000
     34602       287  POPC      H7R           -57.0410022156      -30.3826862223       -8.8703472169  MEMB      287             0.0000000000
     34603       287  POPC      H7S           -56.4106860294      -28.7626775803       -8.3937178329  MEMB      287             0.0000000000
     34604       287  POPC      C28           -55.1345494419      -29.7491992349       -9.7264569411  MEMB      287             0.0000000000
     34605       287  POPC      H8R           -55.2310445524      -30.4003261732      -10.6214674289  MEMB      287             0.0000000000
     34606       287  POPC      H8S           -54.7215499337      -30.4825799623       -9.0012642494  MEMB      287             0.0000000000
     34607       287  POPC      C29           -54.2602524295      -28.5236276324      -10.0390486417  MEMB      287             0.0000000000
     34608       287  POPC      H91           -54.3779347761      -28.0490514369      -11.0244056898  MEMB      287             0.0000000000
     34609       287  POPC      C210          -53.2416463873      -28.0021881549       -9.3358545249  MEMB      287             0.0000000000
     34610       287  POPC      H101          -52.8519554434      -27.0420896729       -9.7051134558  MEMB      287             0.0000000000
     34611       287  POPC      C211          -52.6454288286      -28.4304658794       -8.0577795567  MEMB      287             0.0000000000
     34612       287  POPC      H11R          -51.5376813015      -28.3459610283       -8.0491132405  MEMB      287             0.0000000000
     34613       287  POPC      H11S          -52.8989878038      -29.5113569819       -8.0165106098  MEMB      287             0.0000000000
     34614       287  POPC      C212          -53.1212156079      -27.8386958998       -6.7519370637  MEMB      287             0.0000000000
     34615       287  POPC      H12R          -53.1338419302      -26.7291378728       -6.6967781287  MEMB      287             0.0000000000
     34616       287  POPC      H12S          -52.5195607972      -28.2385816775       -5.9078844254  MEMB      287             0.0000000000
     34617       287  POPC      C213          -54.5661894797      -28.2691799516       -6.3285688083  MEMB      287             0.0000000000
     34618       287  POPC      H13R          -54.8222192506      -29.2701347652       -6.7370527879  MEMB      287             0.0000000000
     34619       287  POPC      H13S          -55.2564312774      -27.5103255833       -6.7552147085  MEMB      287             0.0000000000
     34620       287  POPC      C214          -54.7850112658      -28.2690749620       -4.7881397805  MEMB      287             0.0000000000
     34621       287  POPC      H14R          -54.1674776262      -29.1271402533       -4.4465301400  MEMB      287             0.0000000000
     34622       287  POPC      H14S          -55.8845532773      -28.3247446079       -4.6390465284  MEMB      287             0.0000000000
     34623       287  POPC      C215          -54.2179063132      -26.9579378286       -4.1043873493  MEMB      287             0.0000000000
     34624       287  POPC      H15R          -54.5213543073      -26.0895639565       -4.7274174690  MEMB      287             0.0000000000
     34625       287  POPC      H15S          -53.1095818002      -27.0292827528       -4.0752766399  MEMB      287             0.0000000000
     34626       287  POPC      C216          -54.6701628179      -26.9153688775       -2.7131922268  MEMB      287             0.0000000000
     34627       287  POPC      H16R          -54.6163867999      -25.9235556729       -2.2154611221  MEMB      287             0.0000000000
     34628       287  POPC      H16S          -54.0289042845      -27.5119195109       -2.0296460004  MEMB      287             0.0000000000
     34629       287  POPC      C217          -56.1798718922      -27.3389086539       -2.4590649423  MEMB      287             0.0000000000
     34630       287  POPC      H17R          -56.8092100462      -27.1272554709       -3.3498263423  MEMB      287             0.0000000000
     34631       287  POPC      H17S          -56.5735658327      -26.7523924051       -1.6015532560  MEMB      287             0.0000000000
     34632       287  POPC      C218          -56.4029169388      -28.8434182030       -2.0775067716  MEMB      287             0.0000000000
     34633       287  POPC      H18R          -57.4960977496      -29.0303573338       -2.0116961495  MEMB      287             0.0000000000
     34634       287  POPC      H18S          -55.8560684151      -29.0795474260       -1.1396778291  MEMB      287             0.0000000000
     34635       287  POPC      H18T          -55.9686938567      -29.5254656690       -2.8394662325  MEMB      287             0.0000000000
     34636       287  POPC      C33           -58.7030710702      -24.0796688209      -11.2371527624  MEMB      287             0.0000000000
     34637       287  POPC      H3X           -58.4946981077      -23.1021055539      -10.7521045038  MEMB      287             0.0000000000
     34638       287  POPC      H3Y           -57.9230437859      -24.3580577533      -11.9776785066  MEMB      287             0.0000000000
     34639       287  POPC      C34           -58.7750281392      -25.1277361575      -10.1747309802  MEMB      287             0.0000000000
     34640       287  POPC      H4X           -57.7447583286      -25.3566482806       -9.8276512205  MEMB      287             0.0000000000
     34641       287  POPC      H4Y           -59.1280896741      -26.0971848627      -10.5868453124  MEMB      287             0.0000000000
     34642       287  POPC      C35           -59.6236789809      -24.7678030429       -8.9496331710  MEMB      287             0.0000000000
     34643       287  POPC      H5X           -60.6843764204      -24.8195286030       -9.2760785361  MEMB      287             0.0000000000
     34644       287  POPC      H5Y           -59.4150368549      -23.7648150619       -8.5197437537  MEMB      287             0.0000000000
     34645       287  POPC      C36           -59.3499201918      -25.6770038692       -7.7692637680  MEMB      287             0.0000000000
     34646       287  POPC      H6X           -59.5025674050      -26.7705183832       -7.8927378773  MEMB      287             0.0000000000
     34647       287  POPC      H6Y           -60.0175345245      -25.3310583748       -6.9513800420  MEMB      287             0.0000000000
     34648       287  POPC      C37           -57.8651311643      -25.4957872285       -7.1559607678  MEMB      287             0.0000000000
     34649       287  POPC      H7X           -57.0983238981      -25.9446884293       -7.8229050303  MEMB      287             0.0000000000
     34650       287  POPC      H7Y           -57.7618512433      -25.9904011467       -6.1665102166  MEMB      287             0.0000000000
     34651       287  POPC      C38           -57.5260932660      -24.0382548842       -6.9110803972  MEMB      287             0.0000000000
     34652       287  POPC      H8X           -58.2305889921      -23.7040785030       -6.1196688487  MEMB      287             0.0000000000
     34653       287  POPC      H8Y           -57.6829907770      -23.4284651140       -7.8264277064  MEMB      287             0.0000000000
     34654       287  POPC      C39           -56.1514116765      -23.7483131430       -6.3212601373  MEMB      287             0.0000000000
     34655       287  POPC      H9X           -55.4906620962      -24.1517193326       -7.1181252078  MEMB      287             0.0000000000
     34656       287  POPC      H9Y           -55.9355027988      -24.5367095772       -5.5688401000  MEMB      287             0.0000000000
     34657       287  POPC      C310          -55.9118239156      -22.3344966705       -5.7093950506  MEMB      287             0.0000000000
     34658       287  POPC      H10X          -56.0107935508      -21.5155936450       -6.4536562134  MEMB      287             0.0000000000
     34659       287  POPC      H10Y          -54.8076587989      -22.3430273690       -5.5866451313  MEMB      287             0.0000000000
     34660       287  POPC      C311          -56.6061582767      -22.0250347361       -4.3476940033  MEMB      287             0.0000000000
     34661       287  POPC      H11X          -57.6982819114      -22.1317006620       -4.5215025867  MEMB      287             0.0000000000
     34662       287  POPC      H11Y          -56.5075388687      -20.9621364211       -4.0397288858  MEMB      287             0.0000000000
     34663       287  POPC      C312          -56.1701628908      -23.0123716454       -3.1481587807  MEMB      287             0.0000000000
     34664       287  POPC      H12X          -55.0800020975      -23.2146665082       -3.2184933379  MEMB      287             0.0000000000
     34665       287  POPC      H12Y          -56.7314305759      -23.9696150624       -3.2027926924  MEMB      287             0.0000000000
     34666       287  POPC      C313          -56.4297404862      -22.2551184490       -1.8433874847  MEMB      287             0.0000000000
     34667       287  POPC      H13X          -56.0692857910      -21.2121540727       -1.9722999066  MEMB      287             0.0000000000
     34668       287  POPC      H13Y          -56.0604256880      -22.7463250895       -0.9178369860  MEMB      287             0.0000000000
     34669       287  POPC      C314          -57.9289170258      -22.0939246282       -1.5144588994  MEMB      287             0.0000000000
     34670       287  POPC      H14X          -58.3134399501      -21.4671481805       -2.3472945643  MEMB      287             0.0000000000
     34671       287  POPC      H14Y          -57.9213079686      -21.3859793173       -0.6582607284  MEMB      287             0.0000000000
     34672       287  POPC      C315          -58.7790467911      -23.3175052811       -1.1539443589  MEMB      287             0.0000000000
     34673       287  POPC      H15X          -58.4077843178      -23.6929574817       -0.1764376601  MEMB      287             0.0000000000
     34674       287  POPC      H15Y          -58.7862154672      -24.0886561425       -1.9536914046  MEMB      287             0.0000000000
     34675       287  POPC      C316          -60.2326840180      -23.0918544255       -0.8699646494  MEMB      287             0.0000000000
     34676       287  POPC      H16X          -60.3454728837      -22.3541148135       -0.0469588535  MEMB      287             0.0000000000
     34677       287  POPC      H16Y          -60.7146482147      -24.0433133951       -0.5589074949  MEMB      287             0.0000000000
     34678       287  POPC      H16Z          -60.8623344846      -22.7176097708       -1.7053097111  MEMB      287             0.0000000000
     34679       288  POPC      N             -24.3439743407      -57.2726946801      -21.1416903751  MEMB      288             0.0000000000
     34680       288  POPC      C12           -23.2338514453      -58.1254334333      -20.4974927516  MEMB      288             0.0000000000
     34681       288  POPC      H12A          -22.4666105182      -58.4268409808      -21.1952712006  MEMB      288             0.0000000000
     34682       288  POPC      H12B          -23.7358469284      -58.9854840604      -20.0795053335  MEMB      288             0.0000000000
     34683       288  POPC      C13           -24.6608376328      -57.9353360206      -22.4986847199  MEMB      288             0.0000000000
     34684       288  POPC      H13A          -23.6805170151      -58.0495626127      -22.9372325567  MEMB      288             0.0000000000
     34685       288  POPC      H13B          -25.1962471622      -58.8384143106      -22.2453350244  MEMB      288             0.0000000000
     34686       288  POPC      H13C          -25.2692832500      -57.2631449769      -23.0855007700  MEMB      288             0.0000000000
     34687       288  POPC      C14           -25.5934842522      -57.2044604204      -20.3074223725  MEMB      288             0.0000000000
     34688       288  POPC      H14A          -25.3180337610      -56.7089525261      -19.3881840910  MEMB      288             0.0000000000
     34689       288  POPC      H14B          -26.3263349279      -56.7508015126      -20.9582092410  MEMB      288             0.0000000000
     34690       288  POPC      H14C          -25.8552495699      -58.2395668154      -20.1448379624  MEMB      288             0.0000000000
     34691       288  POPC      C15           -23.8679351456      -55.8829445219      -21.4274512362  MEMB      288             0.0000000000
     34692       288  POPC      H15A          -23.3437991437      -55.5310658511      -20.5511732818  MEMB      288             0.0000000000
     34693       288  POPC      H15B          -24.6344945116      -55.1437961793      -21.6075801935  MEMB      288             0.0000000000
     34694       288  POPC      H15C          -23.1796042456      -55.8520469312      -22.2591035842  MEMB      288             0.0000000000
     34695       288  POPC      C11           -22.4003411494      -57.6109471245      -19.2111817911  MEMB      288             0.0000000000
     34696       288  POPC      H11A          -21.6558496838      -56.8479175516      -19.5239746296  MEMB      288             0.0000000000
     34697       288  POPC      H11B          -21.9630545979      -58.5804230815      -18.8899064234  MEMB      288             0.0000000000
     34698       288  POPC      P             -23.1463549259      -57.3489656167      -16.7192288688  MEMB      288             0.0000000000
     34699       288  POPC      O13           -24.2036566136      -56.6366258706      -16.0340979443  MEMB      288             0.0000000000
     34700       288  POPC      O14           -21.7578941549      -57.1139625481      -16.2296596485  MEMB      288             0.0000000000
     34701       288  POPC      O12           -23.2120060929      -56.9062079828      -18.2644206649  MEMB      288             0.0000000000
     34702       288  POPC      O11           -23.4720703435      -58.9022815285      -16.6686696255  MEMB      288             0.0000000000
     34703       288  POPC      C1            -24.2779485772      -59.5173957133      -17.5585828041  MEMB      288             0.0000000000
     34704       288  POPC      HA            -23.5713308535      -59.9990480514      -18.2678243190  MEMB      288             0.0000000000
     34705       288  POPC      HB            -24.9063703952      -58.8322705994      -18.1668677960  MEMB      288             0.0000000000
     34706       288  POPC      C2            -25.2569579707      -60.5851218005      -16.9772261401  MEMB      288             0.0000000000
     34707       288  POPC      HS            -25.8726311239      -61.0143809623      -17.7963745885  MEMB      288             0.0000000000
     34708       288  POPC      O21           -26.1265171068      -59.9525829226      -16.0601002124  MEMB      288             0.0000000000
     34709       288  POPC      C21           -26.6936271077      -58.7872528624      -16.2013206737  MEMB      288             0.0000000000
     34710       288  POPC      O22           -26.7976941464      -58.0721586330      -17.2005362390  MEMB      288             0.0000000000
     34711       288  POPC      C22           -27.3328571979      -58.4848635436      -14.8884086748  MEMB      288             0.0000000000
     34712       288  POPC      H2R           -27.8519074710      -59.3140028640      -14.3616872238  MEMB      288             0.0000000000
     34713       288  POPC      H2S           -28.0935847657      -57.6859621092      -15.0202074430  MEMB      288             0.0000000000
     34714       288  POPC      C3            -24.4884867732      -61.7785579514      -16.2082808032  MEMB      288             0.0000000000
     34715       288  POPC      HX            -23.6375468250      -62.0612585706      -16.8642551784  MEMB      288             0.0000000000
     34716       288  POPC      HY            -25.1516442560      -62.6347615924      -15.9603732203  MEMB      288             0.0000000000
     34717       288  POPC      O31           -23.8139023735      -61.2271749840      -15.0598229663  MEMB      288             0.0000000000
     34718       288  POPC      C31           -22.7588744953      -61.9380848485      -14.5252658433  MEMB      288             0.0000000000
     34719       288  POPC      O32           -22.4681325100      -63.0928476058      -14.8028909336  MEMB      288             0.0000000000
     34720       288  POPC      C32           -21.8218591451      -61.2301632967      -13.5579079335  MEMB      288             0.0000000000
     34721       288  POPC      H2X           -20.8518599109      -61.2171327611      -14.0994358688  MEMB      288             0.0000000000
     34722       288  POPC      H2Y           -21.7283856282      -61.8699323303      -12.6544263969  MEMB      288             0.0000000000
     34723       288  POPC      C23           -26.2077705812      -57.9119125874      -13.9285959559  MEMB      288             0.0000000000
     34724       288  POPC      H3R           -26.2125251739      -56.8035453847      -14.0048871327  MEMB      288             0.0000000000
     34725       288  POPC      H3S           -25.2461199898      -58.2817936206      -14.3442125211  MEMB      288             0.0000000000
     34726       288  POPC      C24           -26.1753708502      -58.4049557782      -12.4963131084  MEMB      288             0.0000000000
     34727       288  POPC      H4R           -25.4645670433      -57.7917064764      -11.9021712712  MEMB      288             0.0000000000
     34728       288  POPC      H4S           -25.8968722545      -59.4762762190      -12.5913503251  MEMB      288             0.0000000000
     34729       288  POPC      C25           -27.5527558114      -58.3059586826      -11.8860150312  MEMB      288             0.0000000000
     34730       288  POPC      H5R           -28.1492809643      -59.1670089118      -12.2562463875  MEMB      288             0.0000000000
     34731       288  POPC      H5S           -27.9683826460      -57.3273066040      -12.2082191716  MEMB      288             0.0000000000
     34732       288  POPC      C26           -27.5701257964      -58.4895761442      -10.3360921122  MEMB      288             0.0000000000
     34733       288  POPC      H6R           -28.5955960965      -58.8042323827      -10.0467426475  MEMB      288             0.0000000000
     34734       288  POPC      H6S           -27.2890807873      -57.5052394620       -9.9043329012  MEMB      288             0.0000000000
     34735       288  POPC      C27           -26.7125086544      -59.6916072302       -9.9634735881  MEMB      288             0.0000000000
     34736       288  POPC      H7R           -25.6453383665      -59.4696594732      -10.1784342689  MEMB      288             0.0000000000
     34737       288  POPC      H7S           -26.9231230054      -60.5807920031      -10.5953860196  MEMB      288             0.0000000000
     34738       288  POPC      C28           -26.7669047246      -60.0091423237       -8.4717366963  MEMB      288             0.0000000000
     34739       288  POPC      H8R           -26.6009667169      -59.0968285012       -7.8597982373  MEMB      288             0.0000000000
     34740       288  POPC      H8S           -25.8435730757      -60.5860290263       -8.2504195695  MEMB      288             0.0000000000
     34741       288  POPC      C29           -27.9730693773      -60.7082653544       -8.0377518071  MEMB      288             0.0000000000
     34742       288  POPC      H91           -28.0421758888      -61.8018606046       -8.1340534035  MEMB      288             0.0000000000
     34743       288  POPC      C210          -29.0092261907      -60.1803436698       -7.2976234811  MEMB      288             0.0000000000
     34744       288  POPC      H101          -29.9318686987      -60.7718291628       -7.2034108542  MEMB      288             0.0000000000
     34745       288  POPC      C211          -29.0661393964      -58.7339162206       -6.8585624732  MEMB      288             0.0000000000
     34746       288  POPC      H11R          -30.1685368732      -58.6978150189       -6.7253811393  MEMB      288             0.0000000000
     34747       288  POPC      H11S          -28.8328098803      -58.0446491513       -7.6980800220  MEMB      288             0.0000000000
     34748       288  POPC      C212          -28.2847857786      -58.2733185241       -5.5944161538  MEMB      288             0.0000000000
     34749       288  POPC      H12R          -28.5944388356      -57.2405110034       -5.3265641493  MEMB      288             0.0000000000
     34750       288  POPC      H12S          -27.1860197866      -58.3403266606       -5.7445635797  MEMB      288             0.0000000000
     34751       288  POPC      C213          -28.5233183263      -59.0591657732       -4.3055499543  MEMB      288             0.0000000000
     34752       288  POPC      H13R          -28.1185408120      -60.0938025215       -4.3072077802  MEMB      288             0.0000000000
     34753       288  POPC      H13S          -29.6289353318      -59.1644288611       -4.2763705735  MEMB      288             0.0000000000
     34754       288  POPC      C214          -28.1301030349      -58.3683692720       -2.9623202043  MEMB      288             0.0000000000
     34755       288  POPC      H14R          -28.8483430018      -58.6282885895       -2.1555393422  MEMB      288             0.0000000000
     34756       288  POPC      H14S          -28.1856022526      -57.2677519245       -3.1033216605  MEMB      288             0.0000000000
     34757       288  POPC      C215          -26.6437204328      -58.6625976928       -2.5592522533  MEMB      288             0.0000000000
     34758       288  POPC      H15R          -26.1943842507      -58.0345989126       -1.7604798128  MEMB      288             0.0000000000
     34759       288  POPC      H15S          -25.9061611850      -58.3506953674       -3.3293454639  MEMB      288             0.0000000000
     34760       288  POPC      C216          -26.2890018300      -60.1468661175       -2.1466412062  MEMB      288             0.0000000000
     34761       288  POPC      H16R          -25.2450849177      -60.0921171909       -1.7703957143  MEMB      288             0.0000000000
     34762       288  POPC      H16S          -26.3512098666      -60.8481554811       -3.0060855044  MEMB      288             0.0000000000
     34763       288  POPC      C217          -27.2754475827      -60.7388339802       -1.1284601932  MEMB      288             0.0000000000
     34764       288  POPC      H17R          -28.2894350103      -60.6761037456       -1.5781443823  MEMB      288             0.0000000000
     34765       288  POPC      H17S          -27.1984031727      -60.1477287553       -0.1909203250  MEMB      288             0.0000000000
     34766       288  POPC      C218          -27.0098429803      -62.2466214260       -0.8514352559  MEMB      288             0.0000000000
     34767       288  POPC      H18R          -27.4200893751      -62.7726652540       -1.7398587961  MEMB      288             0.0000000000
     34768       288  POPC      H18S          -27.4911058195      -62.6125945653        0.0806421034  MEMB      288             0.0000000000
     34769       288  POPC      H18T          -25.9057123254      -62.3689421590       -0.8673931037  MEMB      288             0.0000000000
     34770       288  POPC      C33           -22.3038082572      -59.7849241467      -13.3577313429  MEMB      288             0.0000000000
     34771       288  POPC      H3X           -23.4028804517      -59.7290123255      -13.2053010173  MEMB      288             0.0000000000
     34772       288  POPC      H3Y           -22.1758133813      -59.2042414025      -14.2962117415  MEMB      288             0.0000000000
     34773       288  POPC      C34           -21.3596831074      -59.1054821270      -12.3206659266  MEMB      288             0.0000000000
     34774       288  POPC      H4X           -21.3624233418      -58.0116568214      -12.5152413082  MEMB      288             0.0000000000
     34775       288  POPC      H4Y           -20.3267511171      -59.4961397599      -12.4421535164  MEMB      288             0.0000000000
     34776       288  POPC      C35           -21.7829881194      -59.2922015206      -10.8788745688  MEMB      288             0.0000000000
     34777       288  POPC      H5X           -20.8519153041      -59.3309573108      -10.2739593847  MEMB      288             0.0000000000
     34778       288  POPC      H5Y           -22.1561775938      -60.3228125714      -10.6975137086  MEMB      288             0.0000000000
     34779       288  POPC      C36           -22.6590891064      -58.1096149874      -10.2274221559  MEMB      288             0.0000000000
     34780       288  POPC      H6X           -23.6981353837      -58.2562941071      -10.5923730899  MEMB      288             0.0000000000
     34781       288  POPC      H6Y           -22.2677543758      -57.1030237140      -10.4880996037  MEMB      288             0.0000000000
     34782       288  POPC      C37           -22.6201582793      -58.1274695640       -8.6963388487  MEMB      288             0.0000000000
     34783       288  POPC      H7X           -21.5790066834      -57.8235827890       -8.4555536040  MEMB      288             0.0000000000
     34784       288  POPC      H7Y           -22.6121631640      -59.1559924740       -8.2763422007  MEMB      288             0.0000000000
     34785       288  POPC      C38           -23.6486516193      -57.2774752796       -7.9157759704  MEMB      288             0.0000000000
     34786       288  POPC      H8X           -24.6455747586      -57.7370962268       -8.0866975136  MEMB      288             0.0000000000
     34787       288  POPC      H8Y           -23.6888334801      -56.2731535891       -8.3891083752  MEMB      288             0.0000000000
     34788       288  POPC      C39           -23.4279673142      -57.1350228924       -6.4230501278  MEMB      288             0.0000000000
     34789       288  POPC      H9X           -24.3440194635      -56.8033313779       -5.8890558466  MEMB      288             0.0000000000
     34790       288  POPC      H9Y           -22.5927069570      -56.4039193634       -6.3766868534  MEMB      288             0.0000000000
     34791       288  POPC      C310          -22.7581327751      -58.3070584279       -5.7257446452  MEMB      288             0.0000000000
     34792       288  POPC      H10X          -21.8496704129      -58.6370248809       -6.2735942413  MEMB      288             0.0000000000
     34793       288  POPC      H10Y          -23.5130588624      -59.1183771292       -5.8042905198  MEMB      288             0.0000000000
     34794       288  POPC      C311          -22.3826398842      -57.8191782565       -4.3215628760  MEMB      288             0.0000000000
     34795       288  POPC      H11X          -23.2028336472      -57.3188840808       -3.7636128439  MEMB      288             0.0000000000
     34796       288  POPC      H11Y          -21.6438578898      -56.9894158897       -4.3174378265  MEMB      288             0.0000000000
     34797       288  POPC      C312          -21.8277460354      -58.8421639184       -3.2605038337  MEMB      288             0.0000000000
     34798       288  POPC      H12X          -20.9069532740      -59.3133730535       -3.6659959945  MEMB      288             0.0000000000
     34799       288  POPC      H12Y          -22.5978870394      -59.6175805561       -3.0606708265  MEMB      288             0.0000000000
     34800       288  POPC      C313          -21.6107626850      -58.1716475951       -1.8925896157  MEMB      288             0.0000000000
     34801       288  POPC      H13X          -22.5807191652      -57.6754394496       -1.6751443578  MEMB      288             0.0000000000
     34802       288  POPC      H13Y          -20.7618870571      -57.4681867940       -2.0299730335  MEMB      288             0.0000000000
     34803       288  POPC      C314          -21.4197666261      -59.2024234886       -0.7263536027  MEMB      288             0.0000000000
     34804       288  POPC      H14X          -20.3209186233      -59.2440982619       -0.5678694790  MEMB      288             0.0000000000
     34805       288  POPC      H14Y          -21.8440251359      -60.1765234500       -1.0510922797  MEMB      288             0.0000000000
     34806       288  POPC      C315          -21.9236477455      -58.6386845964        0.6037440328  MEMB      288             0.0000000000
     34807       288  POPC      H15X          -23.0087384851      -58.4004855305        0.5910967788  MEMB      288             0.0000000000
     34808       288  POPC      H15Y          -21.2465464896      -57.7586469432        0.6410188723  MEMB      288             0.0000000000
     34809       288  POPC      C316          -21.6743827110      -59.5711933375        1.8069404964  MEMB      288             0.0000000000
     34810       288  POPC      H16X          -22.3219459535      -59.2502729541        2.6507376813  MEMB      288             0.0000000000
     34811       288  POPC      H16Y          -20.6394338782      -59.4160377763        2.1799398240  MEMB      288             0.0000000000
     34812       288  POPC      H16Z          -21.9601810730      -60.6377170910        1.6837840822  MEMB      288             0.0000000000
     34813       289  POPC      N              53.4846890471      -29.5905318979      -18.3151569111  MEMB      289             0.0000000000
     34814       289  POPC      C12            54.6061964805      -29.0283430942      -17.5603986176  MEMB      289             0.0000000000
     34815       289  POPC      H12A           55.1373219710      -29.9414803223      -17.3357073229  MEMB      289             0.0000000000
     34816       289  POPC      H12B           54.3575366590      -28.4948796477      -16.6548683380  MEMB      289             0.0000000000
     34817       289  POPC      C13            53.8667364919      -30.3989464671      -19.5702848359  MEMB      289             0.0000000000
     34818       289  POPC      H13A           54.5452190831      -31.1595605085      -19.2131746617  MEMB      289             0.0000000000
     34819       289  POPC      H13B           53.0008092896      -30.8598456553      -20.0221058916  MEMB      289             0.0000000000
     34820       289  POPC      H13C           54.3269795057      -29.7595098039      -20.3089978573  MEMB      289             0.0000000000
     34821       289  POPC      C14            52.6343603453      -30.4264483789      -17.4080251462  MEMB      289             0.0000000000
     34822       289  POPC      H14A           52.2672128559      -29.7555612737      -16.6454549188  MEMB      289             0.0000000000
     34823       289  POPC      H14B           51.7931860619      -30.7839459119      -17.9833695337  MEMB      289             0.0000000000
     34824       289  POPC      H14C           53.1657175567      -31.2582622809      -16.9696812888  MEMB      289             0.0000000000
     34825       289  POPC      C15            52.6755933141      -28.3849632806      -18.7356221023  MEMB      289             0.0000000000
     34826       289  POPC      H15A           53.2299750171      -27.8720644605      -19.5076297216  MEMB      289             0.0000000000
     34827       289  POPC      H15B           52.4409295064      -27.6640912074      -17.9664172733  MEMB      289             0.0000000000
     34828       289  POPC      H15C           51.8144160166      -28.8604156028      -19.1814011709  MEMB      289             0.0000000000
     34829       289  POPC      C11            55.5875068794      -28.0691608784      -18.3211404555  MEMB      289             0.0000000000
     34830       289  POPC      H11A           56.3071403662      -27.6359627625      -17.5939622560  MEMB      289             0.0000000000
     34831       289  POPC      H11B           54.9132777029      -27.2381586735      -18.6197560630  MEMB      289             0.0000000000
     34832       289  POPC      P              57.6039456043      -28.8090459680      -19.8967812660  MEMB      289             0.0000000000
     34833       289  POPC      O13            58.1410198622      -27.5678058616      -20.5830948917  MEMB      289             0.0000000000
     34834       289  POPC      O14            57.6871951457      -30.0962619064      -20.6147668318  MEMB      289             0.0000000000
     34835       289  POPC      O12            56.1209450069      -28.6597347063      -19.4789417164  MEMB      289             0.0000000000
     34836       289  POPC      O11            58.2979089556      -28.8121010827      -18.5157871843  MEMB      289             0.0000000000
     34837       289  POPC      C1             59.5499859419      -29.5510965539      -18.4489292928  MEMB      289             0.0000000000
     34838       289  POPC      HA             60.3627168834      -28.8904953766      -18.8195983828  MEMB      289             0.0000000000
     34839       289  POPC      HB             59.4750890735      -30.5875118979      -18.8420638874  MEMB      289             0.0000000000
     34840       289  POPC      C2             59.9132817146      -29.8570306718      -16.9091341118  MEMB      289             0.0000000000
     34841       289  POPC      HS             60.9336602193      -30.2960867692      -16.9285763289  MEMB      289             0.0000000000
     34842       289  POPC      O21            58.8976124951      -30.7850992408      -16.3967495653  MEMB      289             0.0000000000
     34843       289  POPC      C21            59.0523189415      -31.2357194376      -15.1638214018  MEMB      289             0.0000000000
     34844       289  POPC      O22            60.0546010046      -31.3193727214      -14.4926057458  MEMB      289             0.0000000000
     34845       289  POPC      C22            57.5923959542      -31.5000807207      -14.5868877517  MEMB      289             0.0000000000
     34846       289  POPC      H2R            57.3016439816      -32.4813518694      -15.0191969501  MEMB      289             0.0000000000
     34847       289  POPC      H2S            56.8575472362      -30.6998690339      -14.8192230752  MEMB      289             0.0000000000
     34848       289  POPC      C3             59.9893563164      -28.5796936049      -16.0518573260  MEMB      289             0.0000000000
     34849       289  POPC      HX             60.5349493337      -27.8661962865      -16.7057460448  MEMB      289             0.0000000000
     34850       289  POPC      HY             60.5662048844      -28.7464552711      -15.1171073628  MEMB      289             0.0000000000
     34851       289  POPC      O31            58.6772385307      -28.0412724564      -15.8226704180  MEMB      289             0.0000000000
     34852       289  POPC      C31            58.6719223698      -26.9113159132      -15.2055525639  MEMB      289             0.0000000000
     34853       289  POPC      O32            59.6339646348      -26.3576394616      -14.7624970626  MEMB      289             0.0000000000
     34854       289  POPC      C32            57.1449945774      -26.5040116606      -14.9518717073  MEMB      289             0.0000000000
     34855       289  POPC      H2X            56.6629711002      -26.0777651811      -15.8575695264  MEMB      289             0.0000000000
     34856       289  POPC      H2Y            57.1350429438      -25.6358169149      -14.2587197839  MEMB      289             0.0000000000
     34857       289  POPC      C23            57.6237996264      -31.8118722385      -13.1244652549  MEMB      289             0.0000000000
     34858       289  POPC      H3R            57.9451367593      -30.9465650028      -12.5061559361  MEMB      289             0.0000000000
     34859       289  POPC      H3S            58.3195349460      -32.6634758273      -12.9662094028  MEMB      289             0.0000000000
     34860       289  POPC      C24            56.3334865778      -32.2740260635      -12.4491813615  MEMB      289             0.0000000000
     34861       289  POPC      H4R            55.9521637189      -33.1306131772      -13.0451446327  MEMB      289             0.0000000000
     34862       289  POPC      H4S            55.6472683350      -31.4005381842      -12.4280973902  MEMB      289             0.0000000000
     34863       289  POPC      C25            56.4422405617      -32.8629291288      -11.0527582539  MEMB      289             0.0000000000
     34864       289  POPC      H5R            56.9516062945      -33.8417132355      -10.9229548515  MEMB      289             0.0000000000
     34865       289  POPC      H5S            55.4275952352      -33.1891980343      -10.7391264370  MEMB      289             0.0000000000
     34866       289  POPC      C26            56.9658025607      -31.8756046785       -9.9754580758  MEMB      289             0.0000000000
     34867       289  POPC      H6R            56.2536811288      -31.0228577159       -9.9806396314  MEMB      289             0.0000000000
     34868       289  POPC      H6S            57.9342090584      -31.4391569066      -10.3010705351  MEMB      289             0.0000000000
     34869       289  POPC      C27            57.1437267551      -32.4664409505       -8.5496717118  MEMB      289             0.0000000000
     34870       289  POPC      H7R            57.6729238937      -31.7203899102       -7.9190540896  MEMB      289             0.0000000000
     34871       289  POPC      H7S            57.9854671021      -33.1711654554       -8.7204271703  MEMB      289             0.0000000000
     34872       289  POPC      C28            55.9202017627      -33.1290449057       -7.9131878195  MEMB      289             0.0000000000
     34873       289  POPC      H8R            56.2484083973      -33.7541839617       -7.0553981548  MEMB      289             0.0000000000
     34874       289  POPC      H8S            55.5442268857      -33.8882417062       -8.6319252973  MEMB      289             0.0000000000
     34875       289  POPC      C29            54.7903960489      -32.1732354428       -7.4631099581  MEMB      289             0.0000000000
     34876       289  POPC      H91            54.2826335034      -31.5919195069       -8.2468501864  MEMB      289             0.0000000000
     34877       289  POPC      C210           54.3235176317      -31.9982810193       -6.2325766736  MEMB      289             0.0000000000
     34878       289  POPC      H101           53.3648887302      -31.4780466743       -6.0897947652  MEMB      289             0.0000000000
     34879       289  POPC      C211           54.7956473476      -32.6927854958       -4.8824710023  MEMB      289             0.0000000000
     34880       289  POPC      H11R           54.6043201557      -33.7852354682       -4.8171377773  MEMB      289             0.0000000000
     34881       289  POPC      H11S           54.1308749058      -32.1777169989       -4.1564523326  MEMB      289             0.0000000000
     34882       289  POPC      C212           56.2864580397      -32.3642698689       -4.5141684997  MEMB      289             0.0000000000
     34883       289  POPC      H12R           56.5124135317      -31.3464769995       -4.8980473032  MEMB      289             0.0000000000
     34884       289  POPC      H12S           56.9479312332      -33.1539733070       -4.9302728056  MEMB      289             0.0000000000
     34885       289  POPC      C213           56.5122017716      -32.3634978014       -3.0207385442  MEMB      289             0.0000000000
     34886       289  POPC      H13R           56.3924516819      -33.4206212518       -2.7006265886  MEMB      289             0.0000000000
     34887       289  POPC      H13S           55.6992639142      -31.7871835327       -2.5295007482  MEMB      289             0.0000000000
     34888       289  POPC      C214           57.9172147628      -31.8613846762       -2.4945724748  MEMB      289             0.0000000000
     34889       289  POPC      H14R           57.6729353624      -30.9687479454       -1.8798781667  MEMB      289             0.0000000000
     34890       289  POPC      H14S           58.5743464051      -31.5635139881       -3.3394220983  MEMB      289             0.0000000000
     34891       289  POPC      C215           58.5830374806      -32.9466258189       -1.6120589415  MEMB      289             0.0000000000
     34892       289  POPC      H15R           58.8172822029      -33.8775803981       -2.1713221310  MEMB      289             0.0000000000
     34893       289  POPC      H15S           57.9134786046      -33.2511185191       -0.7794162884  MEMB      289             0.0000000000
     34894       289  POPC      C216           59.8743666874      -32.5197636384       -1.0997863331  MEMB      289             0.0000000000
     34895       289  POPC      H16R           60.1734025483      -33.1860933637       -0.2625863075  MEMB      289             0.0000000000
     34896       289  POPC      H16S           59.7332556369      -31.5751540138       -0.5322287375  MEMB      289             0.0000000000
     34897       289  POPC      C217           60.9770961039      -32.3825883878       -2.1141637367  MEMB      289             0.0000000000
     34898       289  POPC      H17R           60.7559344533      -31.6795759093       -2.9455380681  MEMB      289             0.0000000000
     34899       289  POPC      H17S           61.1132609869      -33.4106426064       -2.5127677045  MEMB      289             0.0000000000
     34900       289  POPC      C218           62.2981669054      -32.0526582341       -1.4463317812  MEMB      289             0.0000000000
     34901       289  POPC      H18R           62.1773509211      -31.2372240867       -0.7014886131  MEMB      289             0.0000000000
     34902       289  POPC      H18S           63.1136319302      -31.6949221628       -2.1106835013  MEMB      289             0.0000000000
     34903       289  POPC      H18T           62.6247392259      -32.9721280155       -0.9150617271  MEMB      289             0.0000000000
     34904       289  POPC      C33            56.3653508158      -27.6855891274      -14.3119313055  MEMB      289             0.0000000000
     34905       289  POPC      H3X            56.9298075503      -28.1035002072      -13.4510827542  MEMB      289             0.0000000000
     34906       289  POPC      H3Y            56.3118922254      -28.4881245997      -15.0783513817  MEMB      289             0.0000000000
     34907       289  POPC      C34            54.8941793711      -27.3039076681      -14.0094789175  MEMB      289             0.0000000000
     34908       289  POPC      H4X            54.4416148298      -26.8745257448      -14.9287927710  MEMB      289             0.0000000000
     34909       289  POPC      H4Y            54.8334904515      -26.5003939234      -13.2446235715  MEMB      289             0.0000000000
     34910       289  POPC      C35            54.0051132000      -28.5244435882      -13.6996717754  MEMB      289             0.0000000000
     34911       289  POPC      H5X            54.1368086108      -29.3309365655      -14.4523646277  MEMB      289             0.0000000000
     34912       289  POPC      H5Y            52.9300020920      -28.2479815767      -13.7446798895  MEMB      289             0.0000000000
     34913       289  POPC      C36            54.1163232154      -28.9980240986      -12.2667007625  MEMB      289             0.0000000000
     34914       289  POPC      H6X            55.1299591843      -29.4423516926      -12.1695601655  MEMB      289             0.0000000000
     34915       289  POPC      H6Y            53.4000302847      -29.8472483154      -12.2587276691  MEMB      289             0.0000000000
     34916       289  POPC      C37            53.7283029547      -28.0499191271      -11.1202879703  MEMB      289             0.0000000000
     34917       289  POPC      H7X            52.6239198397      -27.9290325828      -11.1270389551  MEMB      289             0.0000000000
     34918       289  POPC      H7Y            54.2408034593      -27.0755119107      -11.2692667760  MEMB      289             0.0000000000
     34919       289  POPC      C38            54.2636986359      -28.6532350780       -9.7910339514  MEMB      289             0.0000000000
     34920       289  POPC      H8X            54.3977239348      -29.7433068563       -9.9586695936  MEMB      289             0.0000000000
     34921       289  POPC      H8Y            53.6122668116      -28.5269599223       -8.8999608344  MEMB      289             0.0000000000
     34922       289  POPC      C39            55.6048421095      -28.0215636688       -9.4398236105  MEMB      289             0.0000000000
     34923       289  POPC      H9X            55.4814688750      -26.9322235122       -9.2597178685  MEMB      289             0.0000000000
     34924       289  POPC      H9Y            56.3308319304      -28.2260794305      -10.2555651028  MEMB      289             0.0000000000
     34925       289  POPC      C310           56.2577534621      -28.5505841196       -8.1909245564  MEMB      289             0.0000000000
     34926       289  POPC      H10X           56.4092175387      -29.6461781142       -8.2960606457  MEMB      289             0.0000000000
     34927       289  POPC      H10Y           55.4400255812      -28.4081239516       -7.4524478526  MEMB      289             0.0000000000
     34928       289  POPC      C311           57.4586372941      -27.7302609182       -7.7522970426  MEMB      289             0.0000000000
     34929       289  POPC      H11X           57.1761749738      -26.6862272390       -7.4982701449  MEMB      289             0.0000000000
     34930       289  POPC      H11Y           58.1370882470      -27.6553606832       -8.6288895987  MEMB      289             0.0000000000
     34931       289  POPC      C312           58.2282933155      -28.3397060255       -6.5885834885  MEMB      289             0.0000000000
     34932       289  POPC      H12X           59.3070804872      -28.3919171145       -6.8489936044  MEMB      289             0.0000000000
     34933       289  POPC      H12Y           57.9649083559      -29.4187837825       -6.5653359699  MEMB      289             0.0000000000
     34934       289  POPC      C313           58.1230078497      -27.6425493801       -5.2510676028  MEMB      289             0.0000000000
     34935       289  POPC      H13X           58.4571265170      -26.5845393504       -5.3085105598  MEMB      289             0.0000000000
     34936       289  POPC      H13Y           58.7694512145      -28.1477606078       -4.5019381719  MEMB      289             0.0000000000
     34937       289  POPC      C314           56.6396837661      -27.7288540091       -4.8161672485  MEMB      289             0.0000000000
     34938       289  POPC      H14X           56.3658009890      -28.8048656620       -4.7773277772  MEMB      289             0.0000000000
     34939       289  POPC      H14Y           56.0326072656      -27.3070533589       -5.6455427883  MEMB      289             0.0000000000
     34940       289  POPC      C315           56.4772232253      -27.0839916536       -3.4202534002  MEMB      289             0.0000000000
     34941       289  POPC      H15X           55.4048499504      -27.2044047741       -3.1559869195  MEMB      289             0.0000000000
     34942       289  POPC      H15Y           56.6587423688      -25.9927385596       -3.5229136579  MEMB      289             0.0000000000
     34943       289  POPC      C316           57.3276130952      -27.7688683579       -2.3163959852  MEMB      289             0.0000000000
     34944       289  POPC      H16X           57.0442308839      -27.3344740766       -1.3338899510  MEMB      289             0.0000000000
     34945       289  POPC      H16Y           58.3991487114      -27.5362316353       -2.4953172806  MEMB      289             0.0000000000
     34946       289  POPC      H16Z           57.2318706118      -28.8757341230       -2.3146846735  MEMB      289             0.0000000000
     34947       290  POPC      N             -33.4058449184      -54.6203010955      -20.2267005281  MEMB      290             0.0000000000
     34948       290  POPC      C12           -32.3555718349      -53.5907056723      -20.6194121457  MEMB      290             0.0000000000
     34949       290  POPC      H12A          -32.7946726753      -52.9969369449      -21.4074661801  MEMB      290             0.0000000000
     34950       290  POPC      H12B          -31.5262656721      -54.0986570311      -21.0891319430  MEMB      290             0.0000000000
     34951       290  POPC      C13           -32.8509592793      -55.4723580387      -19.1848266043  MEMB      290             0.0000000000
     34952       290  POPC      H13A          -32.9328870377      -54.8496373518      -18.3062442716  MEMB      290             0.0000000000
     34953       290  POPC      H13B          -33.3367360264      -56.4008524336      -18.9234476550  MEMB      290             0.0000000000
     34954       290  POPC      H13C          -31.8252074961      -55.7864052609      -19.3097569684  MEMB      290             0.0000000000
     34955       290  POPC      C14           -34.7114713821      -53.8580378613      -19.9485823005  MEMB      290             0.0000000000
     34956       290  POPC      H14A          -34.5400578704      -53.1662369271      -19.1371460327  MEMB      290             0.0000000000
     34957       290  POPC      H14B          -34.9200651961      -53.3450137257      -20.8757796388  MEMB      290             0.0000000000
     34958       290  POPC      H14C          -35.5282500597      -54.5233416871      -19.7105842966  MEMB      290             0.0000000000
     34959       290  POPC      C15           -33.5742125350      -55.4109046579      -21.5711083859  MEMB      290             0.0000000000
     34960       290  POPC      H15A          -33.1971467747      -54.7980683424      -22.3764984970  MEMB      290             0.0000000000
     34961       290  POPC      H15B          -34.6235740867      -55.3808652778      -21.8247578078  MEMB      290             0.0000000000
     34962       290  POPC      H15C          -33.0805352154      -56.3714529272      -21.5656813958  MEMB      290             0.0000000000
     34963       290  POPC      C11           -31.8660652893      -52.5559287633      -19.6021983717  MEMB      290             0.0000000000
     34964       290  POPC      H11A          -32.6257138779      -51.8848137461      -19.1473800109  MEMB      290             0.0000000000
     34965       290  POPC      H11B          -31.1312862586      -51.8861151042      -20.0979508529  MEMB      290             0.0000000000
     34966       290  POPC      P             -30.2667594340      -52.4731747198      -17.5690722640  MEMB      290             0.0000000000
     34967       290  POPC      O13           -31.1684902905      -51.6103179329      -16.7781067672  MEMB      290             0.0000000000
     34968       290  POPC      O14           -29.1142359943      -51.8669514502      -18.2699156943  MEMB      290             0.0000000000
     34969       290  POPC      O12           -31.2305376828      -53.2628403722      -18.5649110468  MEMB      290             0.0000000000
     34970       290  POPC      O11           -29.7445065644      -53.5995754363      -16.6651658441  MEMB      290             0.0000000000
     34971       290  POPC      C1            -29.4252703014      -54.9242215301      -17.1829991466  MEMB      290             0.0000000000
     34972       290  POPC      HA            -28.5224288447      -54.8074184451      -17.8198315044  MEMB      290             0.0000000000
     34973       290  POPC      HB            -30.2964595478      -55.3408272088      -17.7323533681  MEMB      290             0.0000000000
     34974       290  POPC      C2            -29.1087486469      -55.8987636604      -16.0554317686  MEMB      290             0.0000000000
     34975       290  POPC      HS            -29.0815297543      -56.8954742576      -16.5454808702  MEMB      290             0.0000000000
     34976       290  POPC      O21           -29.8756513312      -55.7325827830      -14.8139958272  MEMB      290             0.0000000000
     34977       290  POPC      C21           -31.1844824808      -56.0779718545      -14.9304277492  MEMB      290             0.0000000000
     34978       290  POPC      O22           -31.7014268285      -56.5595353382      -15.8928638211  MEMB      290             0.0000000000
     34979       290  POPC      C22           -31.9683775407      -55.6943423850      -13.6171817701  MEMB      290             0.0000000000
     34980       290  POPC      H2R           -31.2289432209      -55.3034703599      -12.8858973799  MEMB      290             0.0000000000
     34981       290  POPC      H2S           -32.5159177417      -56.5407023797      -13.1500679700  MEMB      290             0.0000000000
     34982       290  POPC      C3            -27.6475710980      -55.7998669266      -15.6262282624  MEMB      290             0.0000000000
     34983       290  POPC      HX            -27.0160258463      -55.8321194830      -16.5397003592  MEMB      290             0.0000000000
     34984       290  POPC      HY            -27.3716077897      -56.6683943380      -14.9907558340  MEMB      290             0.0000000000
     34985       290  POPC      O31           -27.3436484150      -54.5658198724      -14.9473018202  MEMB      290             0.0000000000
     34986       290  POPC      C31           -26.7785504882      -54.5319999133      -13.7598071349  MEMB      290             0.0000000000
     34987       290  POPC      O32           -26.4007335174      -55.5355122239      -13.1055007250  MEMB      290             0.0000000000
     34988       290  POPC      C32           -26.7918828685      -53.0347175623      -13.3332509588  MEMB      290             0.0000000000
     34989       290  POPC      H2X           -27.6073123668      -52.4228539459      -13.7748604562  MEMB      290             0.0000000000
     34990       290  POPC      H2Y           -25.8163844057      -52.6563049359      -13.7067849209  MEMB      290             0.0000000000
     34991       290  POPC      C23           -33.1013321527      -54.6851485660      -13.9436511851  MEMB      290             0.0000000000
     34992       290  POPC      H3R           -33.6835689749      -54.6391427622      -12.9985563871  MEMB      290             0.0000000000
     34993       290  POPC      H3S           -33.8315223305      -54.9729088258      -14.7299958393  MEMB      290             0.0000000000
     34994       290  POPC      C24           -32.6727354198      -53.2635745063      -14.2560815412  MEMB      290             0.0000000000
     34995       290  POPC      H4R           -33.5029492472      -52.6676427344      -14.6918924955  MEMB      290             0.0000000000
     34996       290  POPC      H4S           -31.7845288334      -53.2311474319      -14.9226838328  MEMB      290             0.0000000000
     34997       290  POPC      C25           -32.3212237644      -52.4839452334      -12.9476334039  MEMB      290             0.0000000000
     34998       290  POPC      H5R           -31.6468752164      -53.1259122736      -12.3414537772  MEMB      290             0.0000000000
     34999       290  POPC      H5S           -33.2941208162      -52.3556143596      -12.4267459433  MEMB      290             0.0000000000
     35000       290  POPC      C26           -31.8670810077      -51.0720062244      -13.0247696490  MEMB      290             0.0000000000
     35001       290  POPC      H6R           -32.2639445803      -50.4030581568      -13.8180722759  MEMB      290             0.0000000000
     35002       290  POPC      H6S           -30.8159623643      -51.0361383595      -13.3827974908  MEMB      290             0.0000000000
     35003       290  POPC      C27           -31.8959751945      -50.1735653710      -11.6963313191  MEMB      290             0.0000000000
     35004       290  POPC      H7R           -32.9017025474      -50.1121133210      -11.2282959676  MEMB      290             0.0000000000
     35005       290  POPC      H7S           -31.6761622405      -49.1031311858      -11.8967660160  MEMB      290             0.0000000000
     35006       290  POPC      C28           -30.7534859945      -50.6408694492      -10.6833042657  MEMB      290             0.0000000000
     35007       290  POPC      H8R           -29.7951317294      -50.7186539783      -11.2399263334  MEMB      290             0.0000000000
     35008       290  POPC      H8S           -31.0330832456      -51.7039286247      -10.5218997271  MEMB      290             0.0000000000
     35009       290  POPC      C29           -30.8638274897      -49.6764944034       -9.4713667926  MEMB      290             0.0000000000
     35010       290  POPC      H91           -30.8361443712      -48.6062549429       -9.7239949767  MEMB      290             0.0000000000
     35011       290  POPC      C210          -31.3082824818      -49.9417491811       -8.2059503507  MEMB      290             0.0000000000
     35012       290  POPC      H101          -31.3313209970      -49.1140919895       -7.4817591111  MEMB      290             0.0000000000
     35013       290  POPC      C211          -31.8292704471      -51.3205991479       -7.7941924835  MEMB      290             0.0000000000
     35014       290  POPC      H11R          -32.0389203214      -51.9852635039       -8.6594026435  MEMB      290             0.0000000000
     35015       290  POPC      H11S          -32.8111742062      -51.2450529171       -7.2799177269  MEMB      290             0.0000000000
     35016       290  POPC      C212          -30.7498120568      -52.0667325972       -6.9310734125  MEMB      290             0.0000000000
     35017       290  POPC      H12R          -29.8487825756      -52.2782905048       -7.5456549164  MEMB      290             0.0000000000
     35018       290  POPC      H12S          -31.0956041098      -53.0351182680       -6.5103862237  MEMB      290             0.0000000000
     35019       290  POPC      C213          -30.1750602706      -51.3434309232       -5.8226625424  MEMB      290             0.0000000000
     35020       290  POPC      H13R          -30.9766670781      -51.1024397738       -5.0921345708  MEMB      290             0.0000000000
     35021       290  POPC      H13S          -29.7370105299      -50.3998777188       -6.2127150157  MEMB      290             0.0000000000
     35022       290  POPC      C214          -28.9657047232      -51.8823147202       -5.0904952441  MEMB      290             0.0000000000
     35023       290  POPC      H14R          -28.4925449854      -51.1398734578       -4.4128361005  MEMB      290             0.0000000000
     35024       290  POPC      H14S          -28.2162000054      -52.2136544210       -5.8406797003  MEMB      290             0.0000000000
     35025       290  POPC      C215          -29.1342625214      -53.2382410391       -4.3190784612  MEMB      290             0.0000000000
     35026       290  POPC      H15R          -28.8975368940      -54.0594523506       -5.0289337566  MEMB      290             0.0000000000
     35027       290  POPC      H15S          -30.1953223026      -53.4099049372       -4.0380010544  MEMB      290             0.0000000000
     35028       290  POPC      C216          -28.1949796849      -53.4527566160       -3.1127388756  MEMB      290             0.0000000000
     35029       290  POPC      H16R          -27.1745221656      -53.4667378721       -3.5518197633  MEMB      290             0.0000000000
     35030       290  POPC      H16S          -28.3829734397      -54.4482511100       -2.6567020810  MEMB      290             0.0000000000
     35031       290  POPC      C217          -28.2525331837      -52.3736447512       -1.9718723810  MEMB      290             0.0000000000
     35032       290  POPC      H17R          -27.6966019604      -51.4875190320       -2.3460954697  MEMB      290             0.0000000000
     35033       290  POPC      H17S          -27.6888091561      -52.8175699561       -1.1236577026  MEMB      290             0.0000000000
     35034       290  POPC      C218          -29.6343816882      -52.0295632383       -1.5714267327  MEMB      290             0.0000000000
     35035       290  POPC      H18R          -30.3170419853      -51.6578182710       -2.3652148917  MEMB      290             0.0000000000
     35036       290  POPC      H18S          -29.6024044836      -51.3164751081       -0.7200713588  MEMB      290             0.0000000000
     35037       290  POPC      H18T          -30.0299532981      -52.9830406985       -1.1606645993  MEMB      290             0.0000000000
     35038       290  POPC      C33           -26.6383580717      -52.8189778698      -11.7966870995  MEMB      290             0.0000000000
     35039       290  POPC      H3X           -26.4371951427      -51.7410658473      -11.6179138530  MEMB      290             0.0000000000
     35040       290  POPC      H3Y           -25.7541830263      -53.3655112481      -11.4044421429  MEMB      290             0.0000000000
     35041       290  POPC      C34           -27.9944994420      -53.1684127900      -11.0538160207  MEMB      290             0.0000000000
     35042       290  POPC      H4X           -28.7908434152      -53.0109272108      -11.8123383531  MEMB      290             0.0000000000
     35043       290  POPC      H4Y           -28.2463345934      -52.4197037889      -10.2725764010  MEMB      290             0.0000000000
     35044       290  POPC      C35           -27.9630172468      -54.6276726561      -10.5184325191  MEMB      290             0.0000000000
     35045       290  POPC      H5X           -27.0881778304      -54.8093424644       -9.8581504810  MEMB      290             0.0000000000
     35046       290  POPC      H5Y           -28.0120424342      -55.4464433606      -11.2677867128  MEMB      290             0.0000000000
     35047       290  POPC      C36           -29.1830428176      -54.7460255138       -9.6291092780  MEMB      290             0.0000000000
     35048       290  POPC      H6X           -30.0823524589      -54.7605823906      -10.2812988786  MEMB      290             0.0000000000
     35049       290  POPC      H6Y           -29.2952696434      -53.8283549997       -9.0129859908  MEMB      290             0.0000000000
     35050       290  POPC      C37           -29.1140511925      -55.9122698556       -8.6723820941  MEMB      290             0.0000000000
     35051       290  POPC      H7X           -28.0971396178      -56.0174296242       -8.2374643594  MEMB      290             0.0000000000
     35052       290  POPC      H7Y           -29.3339337204      -56.8437511667       -9.2365760362  MEMB      290             0.0000000000
     35053       290  POPC      C38           -30.0484762035      -55.7378282205       -7.4336835666  MEMB      290             0.0000000000
     35054       290  POPC      H8X           -31.0671633981      -55.4174415364       -7.7401964283  MEMB      290             0.0000000000
     35055       290  POPC      H8Y           -29.5707564085      -54.9495755427       -6.8133917821  MEMB      290             0.0000000000
     35056       290  POPC      C39           -30.2419601140      -56.9770192148       -6.5482485319  MEMB      290             0.0000000000
     35057       290  POPC      H9X           -29.3838173081      -57.5299574661       -6.1098754824  MEMB      290             0.0000000000
     35058       290  POPC      H9Y           -30.9083895893      -57.6322634771       -7.1489549094  MEMB      290             0.0000000000
     35059       290  POPC      C310          -31.0324939292      -56.6688793936       -5.2969417115  MEMB      290             0.0000000000
     35060       290  POPC      H10X          -30.4568442941      -55.9057825154       -4.7306981729  MEMB      290             0.0000000000
     35061       290  POPC      H10Y          -31.0683037317      -57.6106499403       -4.7086343253  MEMB      290             0.0000000000
     35062       290  POPC      C311          -32.4412004615      -56.1003416673       -5.5850684404  MEMB      290             0.0000000000
     35063       290  POPC      H11X          -33.0032595961      -56.6879927889       -6.3420864787  MEMB      290             0.0000000000
     35064       290  POPC      H11Y          -32.2703021928      -55.1029471604       -6.0436738489  MEMB      290             0.0000000000
     35065       290  POPC      C312          -33.3083737002      -55.8978867701       -4.3419967994  MEMB      290             0.0000000000
     35066       290  POPC      H12X          -33.5749663643      -56.9134609703       -3.9788736635  MEMB      290             0.0000000000
     35067       290  POPC      H12Y          -34.2445482553      -55.3882128683       -4.6552542755  MEMB      290             0.0000000000
     35068       290  POPC      C313          -32.7137357682      -54.9057890269       -3.3322219191  MEMB      290             0.0000000000
     35069       290  POPC      H13X          -32.4768991806      -54.0087977552       -3.9434799111  MEMB      290             0.0000000000
     35070       290  POPC      H13Y          -31.8189148855      -55.2104810545       -2.7484586483  MEMB      290             0.0000000000
     35071       290  POPC      C314          -33.8455710683      -54.5064764792       -2.3255994686  MEMB      290             0.0000000000
     35072       290  POPC      H14X          -34.2519348903      -55.2439235146       -1.6007809353  MEMB      290             0.0000000000
     35073       290  POPC      H14Y          -34.7802643728      -54.2107021693       -2.8482717103  MEMB      290             0.0000000000
     35074       290  POPC      C315          -33.3881942548      -53.2502229607       -1.4846883264  MEMB      290             0.0000000000
     35075       290  POPC      H15X          -33.2699994297      -52.4290234426       -2.2235943436  MEMB      290             0.0000000000
     35076       290  POPC      H15Y          -32.4988868804      -53.4078656265       -0.8376941406  MEMB      290             0.0000000000
     35077       290  POPC      C316          -34.5083154842      -52.7640798345       -0.5351343132  MEMB      290             0.0000000000
     35078       290  POPC      H16X          -35.3633712878      -52.5580792907       -1.2139318460  MEMB      290             0.0000000000
     35079       290  POPC      H16Y          -34.1563520441      -51.8257166650       -0.0556368285  MEMB      290             0.0000000000
     35080       290  POPC      H16Z          -34.7079516605      -53.5218092158        0.2524646706  MEMB      290             0.0000000000
     35081       291  POPC      N              24.0063075296      -57.8485643927      -20.4771266153  MEMB      291             0.0000000000
     35082       291  POPC      C12            22.6467921740      -57.1700088844      -20.2799243931  MEMB      291             0.0000000000
     35083       291  POPC      H12A           22.2137114324      -56.8582511828      -21.2188856242  MEMB      291             0.0000000000
     35084       291  POPC      H12B           22.8612200009      -56.2484466034      -19.7592097749  MEMB      291             0.0000000000
     35085       291  POPC      C13            24.8482754119      -57.9422038688      -19.2236834224  MEMB      291             0.0000000000
     35086       291  POPC      H13A           25.7023343849      -58.5678095263      -19.4372272418  MEMB      291             0.0000000000
     35087       291  POPC      H13B           25.2109758295      -56.9847803597      -18.8798977550  MEMB      291             0.0000000000
     35088       291  POPC      H13C           24.4216719946      -58.4743457283      -18.3862859661  MEMB      291             0.0000000000
     35089       291  POPC      C14            23.8775307929      -59.2067590182      -21.1383231318  MEMB      291             0.0000000000
     35090       291  POPC      H14A           23.1428768333      -59.8192102253      -20.6367385778  MEMB      291             0.0000000000
     35091       291  POPC      H14B           23.5670621280      -59.0375599342      -22.1588038060  MEMB      291             0.0000000000
     35092       291  POPC      H14C           24.8930037965      -59.5744747002      -21.1384597882  MEMB      291             0.0000000000
     35093       291  POPC      C15            24.7736180924      -57.0229575885      -21.5667392260  MEMB      291             0.0000000000
     35094       291  POPC      H15A           25.0428635789      -56.1155092170      -21.0466965241  MEMB      291             0.0000000000
     35095       291  POPC      H15B           24.1909808112      -56.9479413609      -22.4729987523  MEMB      291             0.0000000000
     35096       291  POPC      H15C           25.6611419656      -57.6079853332      -21.7576416671  MEMB      291             0.0000000000
     35097       291  POPC      C11            21.6581598380      -57.9876301392      -19.4578601416  MEMB      291             0.0000000000
     35098       291  POPC      H11A           21.4472790978      -58.8161402043      -20.1673820950  MEMB      291             0.0000000000
     35099       291  POPC      H11B           20.7904805599      -57.3161732016      -19.2829334082  MEMB      291             0.0000000000
     35100       291  POPC      P              21.0044691090      -59.4604688219      -17.4145112621  MEMB      291             0.0000000000
     35101       291  POPC      O13            20.8400172324      -60.6320966576      -18.3458636596  MEMB      291             0.0000000000
     35102       291  POPC      O14            19.7583336613      -58.8084936789      -16.8382212862  MEMB      291             0.0000000000
     35103       291  POPC      O12            22.0770416125      -58.4091104670      -18.1346460394  MEMB      291             0.0000000000
     35104       291  POPC      O11            21.8334061863      -59.9535363903      -16.1231008194  MEMB      291             0.0000000000
     35105       291  POPC      C1             22.7675327965      -58.9590188832      -15.5435524344  MEMB      291             0.0000000000
     35106       291  POPC      HA             22.1690784844      -58.1631196306      -15.0508884591  MEMB      291             0.0000000000
     35107       291  POPC      HB             23.2824688778      -58.2987377412      -16.2737514384  MEMB      291             0.0000000000
     35108       291  POPC      C2             23.6473110589      -59.7492448274      -14.6649488845  MEMB      291             0.0000000000
     35109       291  POPC      HS             24.2439067156      -60.5155748472      -15.2045163137  MEMB      291             0.0000000000
     35110       291  POPC      O21            22.8920834577      -60.4305771409      -13.6620690257  MEMB      291             0.0000000000
     35111       291  POPC      C21            23.4885427907      -61.2381373594      -12.8338033528  MEMB      291             0.0000000000
     35112       291  POPC      O22            24.6488079525      -61.5935424003      -12.8125812134  MEMB      291             0.0000000000
     35113       291  POPC      C22            22.4594598644      -61.8118509114      -11.9478577597  MEMB      291             0.0000000000
     35114       291  POPC      H2R            22.1790400647      -62.7984008005      -12.3749472701  MEMB      291             0.0000000000
     35115       291  POPC      H2S            21.4997691986      -61.2521157168      -11.9444782863  MEMB      291             0.0000000000
     35116       291  POPC      C3             24.7570368877      -58.9169883828      -14.0053157433  MEMB      291             0.0000000000
     35117       291  POPC      HX             25.3153441226      -58.4525729822      -14.8461082724  MEMB      291             0.0000000000
     35118       291  POPC      HY             25.4675331516      -59.6372061621      -13.5461831779  MEMB      291             0.0000000000
     35119       291  POPC      O31            24.2112683414      -57.9405230773      -13.1350661130  MEMB      291             0.0000000000
     35120       291  POPC      C31            24.6625181342      -57.8269933346      -11.9317156090  MEMB      291             0.0000000000
     35121       291  POPC      O32            25.6503756014      -58.3849430645      -11.4644427578  MEMB      291             0.0000000000
     35122       291  POPC      C32            23.6257574469      -56.9694936882      -11.0767032630  MEMB      291             0.0000000000
     35123       291  POPC      H2X            23.3392437519      -56.0686003184      -11.6603315953  MEMB      291             0.0000000000
     35124       291  POPC      H2Y            24.1682427681      -56.7551733230      -10.1311362936  MEMB      291             0.0000000000
     35125       291  POPC      C23            22.9036969339      -61.8042365688      -10.4824260436  MEMB      291             0.0000000000
     35126       291  POPC      H3R            21.9809105562      -61.9749032188       -9.8877330411  MEMB      291             0.0000000000
     35127       291  POPC      H3S            23.2209750934      -60.7568651671      -10.2909346724  MEMB      291             0.0000000000
     35128       291  POPC      C24            23.8806772419      -62.8692094702      -10.1516267080  MEMB      291             0.0000000000
     35129       291  POPC      H4R            24.8657821591      -62.5527236309      -10.5562579847  MEMB      291             0.0000000000
     35130       291  POPC      H4S            23.6459434979      -63.8266055493      -10.6640864110  MEMB      291             0.0000000000
     35131       291  POPC      C25            23.9234642198      -63.1493290468       -8.6375274279  MEMB      291             0.0000000000
     35132       291  POPC      H5R            23.2053682108      -63.9857830034       -8.4996727147  MEMB      291             0.0000000000
     35133       291  POPC      H5S            23.3937103023      -62.2745569612       -8.2034120638  MEMB      291             0.0000000000
     35134       291  POPC      C26            25.2528210490      -63.3397957064       -7.8919104599  MEMB      291             0.0000000000
     35135       291  POPC      H6R            25.8142603117      -64.2785395515       -8.0865044112  MEMB      291             0.0000000000
     35136       291  POPC      H6S            24.9838525883      -63.4290882126       -6.8176655538  MEMB      291             0.0000000000
     35137       291  POPC      C27            26.2346655435      -62.1753142139       -8.0392564361  MEMB      291             0.0000000000
     35138       291  POPC      H7R            26.2921704797      -61.8539492740       -9.1012072048  MEMB      291             0.0000000000
     35139       291  POPC      H7S            27.2429369983      -62.6091217794       -7.8674411166  MEMB      291             0.0000000000
     35140       291  POPC      C28            26.1813488833      -60.9709078756       -7.0928979502  MEMB      291             0.0000000000
     35141       291  POPC      H8R            27.2052612214      -60.5449988682       -7.1601730306  MEMB      291             0.0000000000
     35142       291  POPC      H8S            25.8769085916      -61.3265875227       -6.0853619302  MEMB      291             0.0000000000
     35143       291  POPC      C29            25.2439528079      -59.8260755743       -7.5399316269  MEMB      291             0.0000000000
     35144       291  POPC      H91            25.5125804496      -59.2994134589       -8.4675447366  MEMB      291             0.0000000000
     35145       291  POPC      C210           24.2096069351      -59.2993089085       -6.8243705153  MEMB      291             0.0000000000
     35146       291  POPC      H101           23.7323531798      -58.3781983062       -7.1901367013  MEMB      291             0.0000000000
     35147       291  POPC      C211           23.7443043460      -59.7860269220       -5.4747465335  MEMB      291             0.0000000000
     35148       291  POPC      H11R           24.3113612508      -60.6643344243       -5.0987901296  MEMB      291             0.0000000000
     35149       291  POPC      H11S           22.6402963732      -59.8904289654       -5.4070148720  MEMB      291             0.0000000000
     35150       291  POPC      C212           24.0483272747      -58.6563624384       -4.4160115589  MEMB      291             0.0000000000
     35151       291  POPC      H12R           23.7440508958      -58.9956330557       -3.4027834194  MEMB      291             0.0000000000
     35152       291  POPC      H12S           23.4093829902      -57.7752575907       -4.6390037126  MEMB      291             0.0000000000
     35153       291  POPC      C213           25.5161513316      -58.2255759191       -4.4552823233  MEMB      291             0.0000000000
     35154       291  POPC      H13R           25.8172491801      -57.6100225418       -5.3297851824  MEMB      291             0.0000000000
     35155       291  POPC      H13S           25.9819240242      -59.2253509609       -4.5887988580  MEMB      291             0.0000000000
     35156       291  POPC      C214           26.1006238379      -57.8758333978       -3.1368639226  MEMB      291             0.0000000000
     35157       291  POPC      H14R           25.6461667524      -56.9219106756       -2.7936128670  MEMB      291             0.0000000000
     35158       291  POPC      H14S           27.1555653614      -57.5410234996       -3.2334129375  MEMB      291             0.0000000000
     35159       291  POPC      C215           25.8864305678      -58.8764558752       -2.0029676403  MEMB      291             0.0000000000
     35160       291  POPC      H15R           25.9326649547      -59.8899501560       -2.4557507342  MEMB      291             0.0000000000
     35161       291  POPC      H15S           24.8288702025      -58.7218787924       -1.6996635673  MEMB      291             0.0000000000
     35162       291  POPC      C216           26.8863739693      -58.7546598414       -0.8502398718  MEMB      291             0.0000000000
     35163       291  POPC      H16R           26.5486637241      -57.9584831354       -0.1528334526  MEMB      291             0.0000000000
     35164       291  POPC      H16S           27.8709542729      -58.3624267609       -1.1835208828  MEMB      291             0.0000000000
     35165       291  POPC      C217           27.1006174051      -60.0391862976       -0.0857403512  MEMB      291             0.0000000000
     35166       291  POPC      H17R           27.3801962318      -60.8100093093       -0.8353993062  MEMB      291             0.0000000000
     35167       291  POPC      H17S           26.1756044137      -60.5119139836        0.3082156200  MEMB      291             0.0000000000
     35168       291  POPC      C218           28.2849295388      -59.9701123596        0.8177248913  MEMB      291             0.0000000000
     35169       291  POPC      H18R           28.2001200079      -59.2810847166        1.6851159060  MEMB      291             0.0000000000
     35170       291  POPC      H18S           29.1008562470      -59.5420666223        0.1969501659  MEMB      291             0.0000000000
     35171       291  POPC      H18T           28.7359985934      -60.8950324448        1.2365083790  MEMB      291             0.0000000000
     35172       291  POPC      C33            22.4754626240      -57.8403128722      -10.7820209548  MEMB      291             0.0000000000
     35173       291  POPC      H3X            22.7539511718      -58.8717955342      -10.4773754612  MEMB      291             0.0000000000
     35174       291  POPC      H3Y            21.7911143305      -57.9282026476      -11.6528042464  MEMB      291             0.0000000000
     35175       291  POPC      C34            21.6041188021      -57.4167422224       -9.6136275933  MEMB      291             0.0000000000
     35176       291  POPC      H4X            20.9853292214      -56.5252752008       -9.8517599385  MEMB      291             0.0000000000
     35177       291  POPC      H4Y            22.2733361478      -57.1688667992       -8.7621426608  MEMB      291             0.0000000000
     35178       291  POPC      C35            20.6133786327      -58.4682095430       -9.0350794582  MEMB      291             0.0000000000
     35179       291  POPC      H5X            21.2828421837      -59.2224934271       -8.5690371570  MEMB      291             0.0000000000
     35180       291  POPC      H5Y            20.0157631965      -58.9107072518       -9.8605325855  MEMB      291             0.0000000000
     35181       291  POPC      C36            19.6774913373      -57.8944872291       -7.9991214512  MEMB      291             0.0000000000
     35182       291  POPC      H6X            18.8188755825      -58.5947087983       -7.9167236108  MEMB      291             0.0000000000
     35183       291  POPC      H6Y            19.3288436116      -56.9168991829       -8.3954636883  MEMB      291             0.0000000000
     35184       291  POPC      C37            20.3285572724      -57.6959892905       -6.6344126357  MEMB      291             0.0000000000
     35185       291  POPC      H7X            21.0969240016      -56.8980886559       -6.7197837739  MEMB      291             0.0000000000
     35186       291  POPC      H7Y            20.8050754846      -58.6436252970       -6.3039012433  MEMB      291             0.0000000000
     35187       291  POPC      C38            19.2851755722      -57.2971876044       -5.6077518288  MEMB      291             0.0000000000
     35188       291  POPC      H8X            18.4715735860      -58.0401815149       -5.4651576987  MEMB      291             0.0000000000
     35189       291  POPC      H8Y            18.6498771646      -56.4848381471       -6.0210375515  MEMB      291             0.0000000000
     35190       291  POPC      C39            19.8753443643      -56.8790871305       -4.2512629488  MEMB      291             0.0000000000
     35191       291  POPC      H9X            19.1455532080      -56.2657559809       -3.6806928867  MEMB      291             0.0000000000
     35192       291  POPC      H9Y            20.6048321504      -56.1075460473       -4.5782075436  MEMB      291             0.0000000000
     35193       291  POPC      C310           20.3942703033      -58.0345460239       -3.4336411514  MEMB      291             0.0000000000
     35194       291  POPC      H10X           21.1432646508      -58.6610548548       -3.9635611277  MEMB      291             0.0000000000
     35195       291  POPC      H10Y           19.5495427380      -58.6324806378       -3.0296236036  MEMB      291             0.0000000000
     35196       291  POPC      C311           21.1719975913      -57.4371742532       -2.1916676927  MEMB      291             0.0000000000
     35197       291  POPC      H11X           20.6212037622      -56.5209062095       -1.8893419766  MEMB      291             0.0000000000
     35198       291  POPC      H11Y           22.1724028774      -57.1663581120       -2.5918790457  MEMB      291             0.0000000000
     35199       291  POPC      C312           21.3920251914      -58.3988358669       -1.0282305482  MEMB      291             0.0000000000
     35200       291  POPC      H12X           21.8332694327      -59.3053952849       -1.4948938024  MEMB      291             0.0000000000
     35201       291  POPC      H12Y           20.3422261045      -58.6013472224       -0.7261848313  MEMB      291             0.0000000000
     35202       291  POPC      C313           22.3431966724      -57.7901175494       -0.0030627327  MEMB      291             0.0000000000
     35203       291  POPC      H13X           21.7409045926      -56.9813005395        0.4631774801  MEMB      291             0.0000000000
     35204       291  POPC      H13Y           23.0855608534      -57.2749867721       -0.6494805354  MEMB      291             0.0000000000
     35205       291  POPC      C314           22.9638166726      -58.7450318842        1.0193612292  MEMB      291             0.0000000000
     35206       291  POPC      H14X           23.3989289869      -58.1111605141        1.8213623977  MEMB      291             0.0000000000
     35207       291  POPC      H14Y           23.7448200699      -59.4060317381        0.5864249362  MEMB      291             0.0000000000
     35208       291  POPC      C315           21.8605107451      -59.5640719659        1.7117244362  MEMB      291             0.0000000000
     35209       291  POPC      H15X           21.3445425983      -60.2322500873        0.9894800861  MEMB      291             0.0000000000
     35210       291  POPC      H15Y           21.0776036553      -58.9112492389        2.1535390479  MEMB      291             0.0000000000
     35211       291  POPC      C316           22.2851681052      -60.4465641701        2.8616792241  MEMB      291             0.0000000000
     35212       291  POPC      H16X           22.2695505488      -59.8662238447        3.8089286008  MEMB      291             0.0000000000
     35213       291  POPC      H16Y           23.2506769623      -60.9274699118        2.5955152657  MEMB      291             0.0000000000
     35214       291  POPC      H16Z           21.5146895627      -61.2429476166        2.9420348217  MEMB      291             0.0000000000
     35215       292  POPC      N             -41.3030135148      -50.6775495381      -19.6008445790  MEMB      292             0.0000000000
     35216       292  POPC      C12           -39.9393395579      -51.3392175104      -19.4060627541  MEMB      292             0.0000000000
     35217       292  POPC      H12A          -39.9512214416      -52.2060868555      -20.0501095364  MEMB      292             0.0000000000
     35218       292  POPC      H12B          -39.9761991082      -51.5456710721      -18.3466203182  MEMB      292             0.0000000000
     35219       292  POPC      C13           -41.3298520017      -49.4347008301      -18.7451785512  MEMB      292             0.0000000000
     35220       292  POPC      H13A          -40.9430228353      -49.6602121127      -17.7623723499  MEMB      292             0.0000000000
     35221       292  POPC      H13B          -40.8001495069      -48.6337923534      -19.2395073598  MEMB      292             0.0000000000
     35222       292  POPC      H13C          -42.3601753133      -49.1249119011      -18.6510271457  MEMB      292             0.0000000000
     35223       292  POPC      C14           -41.5079047528      -50.3791253472      -20.9890811404  MEMB      292             0.0000000000
     35224       292  POPC      H14A          -40.6333311266      -49.9177932086      -21.4234698049  MEMB      292             0.0000000000
     35225       292  POPC      H14B          -41.7009603657      -51.3461895315      -21.4294409016  MEMB      292             0.0000000000
     35226       292  POPC      H14C          -42.4158896671      -49.8421933531      -21.2207440158  MEMB      292             0.0000000000
     35227       292  POPC      C15           -42.4016171962      -51.6097524606      -19.1813674536  MEMB      292             0.0000000000
     35228       292  POPC      H15A          -42.3205251229      -52.6112984824      -19.5772586281  MEMB      292             0.0000000000
     35229       292  POPC      H15B          -43.3676317851      -51.2198786747      -19.4663477339  MEMB      292             0.0000000000
     35230       292  POPC      H15C          -42.4204124883      -51.5462953829      -18.1033971552  MEMB      292             0.0000000000
     35231       292  POPC      C11           -38.6827443872      -50.4670893802      -19.5454498946  MEMB      292             0.0000000000
     35232       292  POPC      H11A          -38.5784302274      -50.0162357151      -20.5554847635  MEMB      292             0.0000000000
     35233       292  POPC      H11B          -37.8891895168      -51.2425200876      -19.4880142576  MEMB      292             0.0000000000
     35234       292  POPC      P             -37.3348952481      -48.5909401302      -18.3661291685  MEMB      292             0.0000000000
     35235       292  POPC      O13           -37.8201446731      -47.2167673193      -18.1222565932  MEMB      292             0.0000000000
     35236       292  POPC      O14           -36.5154885797      -48.8654096652      -19.5781434430  MEMB      292             0.0000000000
     35237       292  POPC      O12           -38.5275067285      -49.6200051093      -18.3984724603  MEMB      292             0.0000000000
     35238       292  POPC      O11           -36.6072480837      -49.0775763454      -17.0670139671  MEMB      292             0.0000000000
     35239       292  POPC      C1            -35.5152957574      -49.9038428536      -17.3351013706  MEMB      292             0.0000000000
     35240       292  POPC      HA            -34.6545443935      -49.2575324008      -17.6102575729  MEMB      292             0.0000000000
     35241       292  POPC      HB            -35.6281684983      -50.6825701131      -18.1194257823  MEMB      292             0.0000000000
     35242       292  POPC      C2            -35.0428322300      -50.6120729095      -16.0372580805  MEMB      292             0.0000000000
     35243       292  POPC      HS            -34.2484832780      -51.2743678104      -16.4430860406  MEMB      292             0.0000000000
     35244       292  POPC      O21           -36.0700256755      -51.4214391377      -15.4673052004  MEMB      292             0.0000000000
     35245       292  POPC      C21           -35.6408001430      -52.2206939402      -14.4117082451  MEMB      292             0.0000000000
     35246       292  POPC      O22           -34.5213028941      -52.2934986517      -14.1249191256  MEMB      292             0.0000000000
     35247       292  POPC      C22           -36.8629992451      -52.9381251584      -13.8731349458  MEMB      292             0.0000000000
     35248       292  POPC      H2R           -37.4942644754      -53.3238917819      -14.7019951057  MEMB      292             0.0000000000
     35249       292  POPC      H2S           -37.4743862762      -52.1280031813      -13.4212175284  MEMB      292             0.0000000000
     35250       292  POPC      C3            -34.5823086668      -49.4589556177      -15.1066650406  MEMB      292             0.0000000000
     35251       292  POPC      HX            -34.0548131181      -48.6923273056      -15.7135838517  MEMB      292             0.0000000000
     35252       292  POPC      HY            -33.8421635653      -49.9012008764      -14.4060040636  MEMB      292             0.0000000000
     35253       292  POPC      O31           -35.6622505983      -48.7652051284      -14.4815529905  MEMB      292             0.0000000000
     35254       292  POPC      C31           -35.4221978562      -48.4804161222      -13.1815386295  MEMB      292             0.0000000000
     35255       292  POPC      O32           -34.5839001031      -49.0265098245      -12.4776430194  MEMB      292             0.0000000000
     35256       292  POPC      C32           -36.4998794379      -47.3816117347      -12.7168724889  MEMB      292             0.0000000000
     35257       292  POPC      H2X           -37.5229575406      -47.5789852097      -13.1024574836  MEMB      292             0.0000000000
     35258       292  POPC      H2Y           -36.1649488735      -46.3820458486      -13.0676011874  MEMB      292             0.0000000000
     35259       292  POPC      C23           -36.4719336595      -54.0989217473      -12.9514541281  MEMB      292             0.0000000000
     35260       292  POPC      H3R           -35.6365539349      -54.7171280594      -13.3442425445  MEMB      292             0.0000000000
     35261       292  POPC      H3S           -37.4503166475      -54.6210415813      -12.8845300692  MEMB      292             0.0000000000
     35262       292  POPC      C24           -36.0267022052      -53.8228961089      -11.4798282926  MEMB      292             0.0000000000
     35263       292  POPC      H4R           -34.9462990735      -53.5658386031      -11.4486603475  MEMB      292             0.0000000000
     35264       292  POPC      H4S           -36.1733508974      -54.7437171061      -10.8757550692  MEMB      292             0.0000000000
     35265       292  POPC      C25           -36.8066121652      -52.6712789304      -10.8009896270  MEMB      292             0.0000000000
     35266       292  POPC      H5R           -37.8741458328      -52.6960515928      -11.1077123954  MEMB      292             0.0000000000
     35267       292  POPC      H5S           -36.4350975282      -51.6893906854      -11.1645731918  MEMB      292             0.0000000000
     35268       292  POPC      C26           -36.5425581616      -52.7073377188       -9.2288287847  MEMB      292             0.0000000000
     35269       292  POPC      H6R           -35.4836652530      -52.9161282366       -8.9652505829  MEMB      292             0.0000000000
     35270       292  POPC      H6S           -37.1188338277      -53.5560634288       -8.8023409457  MEMB      292             0.0000000000
     35271       292  POPC      C27           -37.0376838939      -51.4169892227       -8.5699264680  MEMB      292             0.0000000000
     35272       292  POPC      H7R           -36.7906727690      -50.5864532422       -9.2652796529  MEMB      292             0.0000000000
     35273       292  POPC      H7S           -36.4256269107      -51.2258454514       -7.6626388321  MEMB      292             0.0000000000
     35274       292  POPC      C28           -38.5250818763      -51.4676580233       -8.2343227329  MEMB      292             0.0000000000
     35275       292  POPC      H8R           -39.1976351452      -51.8244582277       -9.0434492291  MEMB      292             0.0000000000
     35276       292  POPC      H8S           -38.7672356530      -50.4097313585       -7.9966801929  MEMB      292             0.0000000000
     35277       292  POPC      C29           -38.7902392096      -52.2574682969       -6.9171700553  MEMB      292             0.0000000000
     35278       292  POPC      H91           -37.9252385552      -52.8441592529       -6.5742884126  MEMB      292             0.0000000000
     35279       292  POPC      C210          -39.8943706013      -52.2540397965       -6.1824730738  MEMB      292             0.0000000000
     35280       292  POPC      H101          -39.8948099144      -52.9046626954       -5.2955175215  MEMB      292             0.0000000000
     35281       292  POPC      C211          -41.2103094645      -51.5054798656       -6.4281098381  MEMB      292             0.0000000000
     35282       292  POPC      H11R          -42.1449865862      -52.0776495178       -6.2455670673  MEMB      292             0.0000000000
     35283       292  POPC      H11S          -41.3804965612      -51.0732036987       -7.4373142140  MEMB      292             0.0000000000
     35284       292  POPC      C212          -41.2291146679      -50.3171295656       -5.4453291818  MEMB      292             0.0000000000
     35285       292  POPC      H12R          -42.1281376003      -49.6804506918       -5.5892699706  MEMB      292             0.0000000000
     35286       292  POPC      H12S          -40.2996718778      -49.7095625696       -5.4816533586  MEMB      292             0.0000000000
     35287       292  POPC      C213          -41.3115302266      -50.7502270097       -3.9966524916  MEMB      292             0.0000000000
     35288       292  POPC      H13R          -40.3218742175      -51.0653727405       -3.6022092691  MEMB      292             0.0000000000
     35289       292  POPC      H13S          -41.9930786195      -51.6242440512       -3.9197960374  MEMB      292             0.0000000000
     35290       292  POPC      C214          -41.7404978387      -49.6746151511       -2.9409684698  MEMB      292             0.0000000000
     35291       292  POPC      H14R          -41.8369330071      -50.0704888566       -1.9073811401  MEMB      292             0.0000000000
     35292       292  POPC      H14S          -42.7491123706      -49.2810552404       -3.1902256202  MEMB      292             0.0000000000
     35293       292  POPC      C215          -40.7958650477      -48.5267517135       -2.9015576182  MEMB      292             0.0000000000
     35294       292  POPC      H15R          -40.8749232935      -47.9950663420       -3.8738662507  MEMB      292             0.0000000000
     35295       292  POPC      H15S          -39.7524289665      -48.8887354571       -2.7810176441  MEMB      292             0.0000000000
     35296       292  POPC      C216          -41.0800964334      -47.6615941235       -1.6174908420  MEMB      292             0.0000000000
     35297       292  POPC      H16R          -40.7446502168      -48.1721651175       -0.6895295988  MEMB      292             0.0000000000
     35298       292  POPC      H16S          -42.1751549202      -47.4787661004       -1.6592270501  MEMB      292             0.0000000000
     35299       292  POPC      C217          -40.1784469012      -46.3537214115       -1.5543314257  MEMB      292             0.0000000000
     35300       292  POPC      H17R          -40.1300205988      -45.8830731706       -2.5595513349  MEMB      292             0.0000000000
     35301       292  POPC      H17S          -39.1411071092      -46.6667442317       -1.3088434468  MEMB      292             0.0000000000
     35302       292  POPC      C218          -40.6707884361      -45.1409350678       -0.6327859312  MEMB      292             0.0000000000
     35303       292  POPC      H18R          -39.9181307192      -44.3246854328       -0.6723299323  MEMB      292             0.0000000000
     35304       292  POPC      H18S          -40.9665318162      -45.4115125211        0.4033815270  MEMB      292             0.0000000000
     35305       292  POPC      H18T          -41.6478334747      -44.8750973268       -1.0899887132  MEMB      292             0.0000000000
     35306       292  POPC      C33           -36.5886553357      -47.2886135813      -11.1796715588  MEMB      292             0.0000000000
     35307       292  POPC      H3X           -35.6093659639      -47.5318768716      -10.7147662180  MEMB      292             0.0000000000
     35308       292  POPC      H3Y           -37.2920153484      -48.0491615078      -10.7782080279  MEMB      292             0.0000000000
     35309       292  POPC      C34           -36.8896868528      -45.8921703994      -10.6029021244  MEMB      292             0.0000000000
     35310       292  POPC      H4X           -37.7915151734      -45.5158591843      -11.1315000534  MEMB      292             0.0000000000
     35311       292  POPC      H4Y           -36.0736978163      -45.1948167253      -10.8895739195  MEMB      292             0.0000000000
     35312       292  POPC      C35           -37.0670952718      -45.8644433828       -9.0955039122  MEMB      292             0.0000000000
     35313       292  POPC      H5X           -37.3673826651      -44.8193894160       -8.8674472726  MEMB      292             0.0000000000
     35314       292  POPC      H5Y           -36.0459856217      -46.0262417360       -8.6887152348  MEMB      292             0.0000000000
     35315       292  POPC      C36           -38.1229797074      -46.7852563818       -8.5065911613  MEMB      292             0.0000000000
     35316       292  POPC      H6X           -37.9809178266      -47.8706724358       -8.6963574081  MEMB      292             0.0000000000
     35317       292  POPC      H6Y           -39.0989573029      -46.4436814065       -8.9129348528  MEMB      292             0.0000000000
     35318       292  POPC      C37           -38.2931430545      -46.5883656587       -7.0163885345  MEMB      292             0.0000000000
     35319       292  POPC      H7X           -39.2289207270      -47.1068774545       -6.7167441812  MEMB      292             0.0000000000
     35320       292  POPC      H7Y           -38.3933718852      -45.4882781256       -6.8977175541  MEMB      292             0.0000000000
     35321       292  POPC      C38           -37.1312484491      -47.2744808932       -6.2232928920  MEMB      292             0.0000000000
     35322       292  POPC      H8X           -36.2021487539      -46.6654426445       -6.2103381658  MEMB      292             0.0000000000
     35323       292  POPC      H8Y           -36.8342721521      -48.1791083963       -6.7958091090  MEMB      292             0.0000000000
     35324       292  POPC      C39           -37.5150499648      -47.6129726922       -4.7871001104  MEMB      292             0.0000000000
     35325       292  POPC      H9X           -38.5905035686      -47.8917565163       -4.7875643801  MEMB      292             0.0000000000
     35326       292  POPC      H9Y           -37.5648447398      -46.6544887466       -4.2275027324  MEMB      292             0.0000000000
     35327       292  POPC      C310          -36.4742119605      -48.4561151085       -3.9953982974  MEMB      292             0.0000000000
     35328       292  POPC      H10X          -36.7753170080      -48.4106376281       -2.9269476737  MEMB      292             0.0000000000
     35329       292  POPC      H10Y          -35.5438309354      -47.8857751520       -4.2037845941  MEMB      292             0.0000000000
     35330       292  POPC      C311          -36.4354340800      -49.9011745367       -4.2925306197  MEMB      292             0.0000000000
     35331       292  POPC      H11X          -35.8703435202      -50.1356225983       -5.2199071416  MEMB      292             0.0000000000
     35332       292  POPC      H11Y          -37.4748714733      -50.2393287150       -4.4913846322  MEMB      292             0.0000000000
     35333       292  POPC      C312          -35.9906117032      -50.7504094651       -3.1307905988  MEMB      292             0.0000000000
     35334       292  POPC      H12X          -36.5197814076      -50.5864212122       -2.1677701598  MEMB      292             0.0000000000
     35335       292  POPC      H12Y          -34.8979735847      -50.6432039377       -2.9605851357  MEMB      292             0.0000000000
     35336       292  POPC      C313          -35.9984336149      -52.3004355490       -3.4164385956  MEMB      292             0.0000000000
     35337       292  POPC      H13X          -35.4333694000      -52.8194773579       -2.6129342990  MEMB      292             0.0000000000
     35338       292  POPC      H13Y          -35.3094137366      -52.5307948602       -4.2569782659  MEMB      292             0.0000000000
     35339       292  POPC      C314          -37.3847883425      -52.9486156931       -3.6431095487  MEMB      292             0.0000000000
     35340       292  POPC      H14X          -37.2403219609      -53.9551852787       -4.0906219185  MEMB      292             0.0000000000
     35341       292  POPC      H14Y          -38.0671703441      -52.3255951038       -4.2599734351  MEMB      292             0.0000000000
     35342       292  POPC      C315          -38.1630982195      -53.1675157182       -2.3638018321  MEMB      292             0.0000000000
     35343       292  POPC      H15X          -39.2515881438      -53.2780166798       -2.5569354957  MEMB      292             0.0000000000
     35344       292  POPC      H15Y          -38.0657987769      -52.2236394642       -1.7859169992  MEMB      292             0.0000000000
     35345       292  POPC      C316          -37.6516718629      -54.1998347968       -1.4336801412  MEMB      292             0.0000000000
     35346       292  POPC      H16X          -37.1204120774      -54.9696649657       -2.0332168288  MEMB      292             0.0000000000
     35347       292  POPC      H16Y          -38.5634280896      -54.6908589968       -1.0312913666  MEMB      292             0.0000000000
     35348       292  POPC      H16Z          -37.0273833914      -53.7434810860       -0.6359788740  MEMB      292             0.0000000000
     35349       293  POPC      N             -53.8401611091       34.0850582920      -21.1189569044  MEMB      293             0.0000000000
     35350       293  POPC      C12           -54.3336274116       35.1615143160      -20.1645995785  MEMB      293             0.0000000000
     35351       293  POPC      H12A          -55.1694867954       34.7538546167      -19.6154614512  MEMB      293             0.0000000000
     35352       293  POPC      H12B          -54.6751750376       35.9739948066      -20.7887954998  MEMB      293             0.0000000000
     35353       293  POPC      C13           -53.4580255778       32.8707311193      -20.3687330334  MEMB      293             0.0000000000
     35354       293  POPC      H13A          -53.0684978962       32.2185177415      -21.1363826202  MEMB      293             0.0000000000
     35355       293  POPC      H13B          -52.6749424350       33.0944623410      -19.6594200406  MEMB      293             0.0000000000
     35356       293  POPC      H13C          -54.2748057741       32.4527244063      -19.7990484273  MEMB      293             0.0000000000
     35357       293  POPC      C14           -54.9495497701       33.7880757160      -22.1855502195  MEMB      293             0.0000000000
     35358       293  POPC      H14A          -55.7561437940       33.5111217348      -21.5229018946  MEMB      293             0.0000000000
     35359       293  POPC      H14B          -55.1838130239       34.6989034199      -22.7165054524  MEMB      293             0.0000000000
     35360       293  POPC      H14C          -54.6749987559       32.9202143820      -22.7667893231  MEMB      293             0.0000000000
     35361       293  POPC      C15           -52.6346828719       34.6042871319      -21.7579519271  MEMB      293             0.0000000000
     35362       293  POPC      H15A          -52.1740979186       33.8201203398      -22.3404842969  MEMB      293             0.0000000000
     35363       293  POPC      H15B          -51.8625651051       34.9457895853      -21.0844458890  MEMB      293             0.0000000000
     35364       293  POPC      H15C          -52.9530319707       35.3741043440      -22.4452911813  MEMB      293             0.0000000000
     35365       293  POPC      C11           -53.3498693501       35.9306934018      -19.2116580972  MEMB      293             0.0000000000
     35366       293  POPC      H11A          -54.0005906399       36.6523395228      -18.6730397708  MEMB      293             0.0000000000
     35367       293  POPC      H11B          -52.5265794155       36.4604467047      -19.7368970861  MEMB      293             0.0000000000
     35368       293  POPC      P             -53.2321155664       34.9634438322      -16.7595674931  MEMB      293             0.0000000000
     35369       293  POPC      O13           -53.1126970116       36.2985917380      -16.0626918043  MEMB      293             0.0000000000
     35370       293  POPC      O14           -52.4248439529       33.8554086014      -16.1191180960  MEMB      293             0.0000000000
     35371       293  POPC      O12           -52.7037407796       35.0774805517      -18.2871239971  MEMB      293             0.0000000000
     35372       293  POPC      O11           -54.7557761337       34.5079528974      -16.9640488513  MEMB      293             0.0000000000
     35373       293  POPC      C1            -55.1728504354       33.1134775241      -17.0746937826  MEMB      293             0.0000000000
     35374       293  POPC      HA            -54.2684148703       32.4709067276      -17.0162127222  MEMB      293             0.0000000000
     35375       293  POPC      HB            -55.5916500038       32.9649607936      -18.0929623102  MEMB      293             0.0000000000
     35376       293  POPC      C2            -56.1103285371       32.7390348652      -15.9314661321  MEMB      293             0.0000000000
     35377       293  POPC      HS            -56.5569340259       31.7854610751      -16.2858129242  MEMB      293             0.0000000000
     35378       293  POPC      O21           -57.0970414715       33.7528664611      -15.4666577958  MEMB      293             0.0000000000
     35379       293  POPC      C21           -57.5162055790       34.6585022466      -16.2442276987  MEMB      293             0.0000000000
     35380       293  POPC      O22           -57.6300931550       34.6671115049      -17.4431180794  MEMB      293             0.0000000000
     35381       293  POPC      C22           -57.9745981289       35.8929561344      -15.4670315070  MEMB      293             0.0000000000
     35382       293  POPC      H2R           -59.0585075751       35.7788166899      -15.2515470321  MEMB      293             0.0000000000
     35383       293  POPC      H2S           -57.7101940395       36.7666470290      -16.1003367968  MEMB      293             0.0000000000
     35384       293  POPC      C3            -55.3699697161       32.2546752344      -14.5666920976  MEMB      293             0.0000000000
     35385       293  POPC      HX            -54.6165970262       31.4715079594      -14.7977756009  MEMB      293             0.0000000000
     35386       293  POPC      HY            -56.1458398549       31.8252786530      -13.8973901372  MEMB      293             0.0000000000
     35387       293  POPC      O31           -54.8080746069       33.4210374731      -13.9515359357  MEMB      293             0.0000000000
     35388       293  POPC      C31           -53.7317256836       33.2029603437      -13.1056764644  MEMB      293             0.0000000000
     35389       293  POPC      O32           -53.4241182548       32.0792789712      -12.6432313008  MEMB      293             0.0000000000
     35390       293  POPC      C32           -53.0533753457       34.5368361703      -12.8342760751  MEMB      293             0.0000000000
     35391       293  POPC      H2X           -53.6241893741       35.0598070886      -12.0374109204  MEMB      293             0.0000000000
     35392       293  POPC      H2Y           -53.0725179029       35.0879504719      -13.7987587933  MEMB      293             0.0000000000
     35393       293  POPC      C23           -57.2147486442       36.0164065016      -14.1697545913  MEMB      293             0.0000000000
     35394       293  POPC      H3R           -56.1475783546       35.7225983943      -14.2653860744  MEMB      293             0.0000000000
     35395       293  POPC      H3S           -57.7253415327       35.3917117162      -13.4059660509  MEMB      293             0.0000000000
     35396       293  POPC      C24           -57.2832313770       37.4334063695      -13.5896781052  MEMB      293             0.0000000000
     35397       293  POPC      H4R           -58.3200655568       37.7612454274      -13.3620448602  MEMB      293             0.0000000000
     35398       293  POPC      H4S           -57.0060173092       38.1409518172      -14.4001431265  MEMB      293             0.0000000000
     35399       293  POPC      C25           -56.4836522557       37.6890319363      -12.2824332831  MEMB      293             0.0000000000
     35400       293  POPC      H5R           -56.9962037541       38.5337288007      -11.7743984359  MEMB      293             0.0000000000
     35401       293  POPC      H5S           -55.4105024436       37.8282327362      -12.5340156977  MEMB      293             0.0000000000
     35402       293  POPC      C26           -56.6482825643       36.5462975749      -11.3678245660  MEMB      293             0.0000000000
     35403       293  POPC      H6R           -56.1662720340       35.6074128362      -11.7149296421  MEMB      293             0.0000000000
     35404       293  POPC      H6S           -57.7343667711       36.4311625706      -11.1641425102  MEMB      293             0.0000000000
     35405       293  POPC      C27           -55.8689894284       36.8216456417       -9.9250957374  MEMB      293             0.0000000000
     35406       293  POPC      H7R           -56.3641853418       37.7737271838       -9.6376200558  MEMB      293             0.0000000000
     35407       293  POPC      H7S           -54.8008500591       36.9347308246      -10.2090168541  MEMB      293             0.0000000000
     35408       293  POPC      C28           -56.1466044532       35.7791921074       -8.8243929912  MEMB      293             0.0000000000
     35409       293  POPC      H8R           -55.6572197880       35.9005492110       -7.8343942967  MEMB      293             0.0000000000
     35410       293  POPC      H8S           -55.7849185241       34.7577616811       -9.0697174770  MEMB      293             0.0000000000
     35411       293  POPC      C29           -57.5814495713       35.5063508440       -8.3976944419  MEMB      293             0.0000000000
     35412       293  POPC      H91           -57.9843805192       34.5785311031       -8.8298949301  MEMB      293             0.0000000000
     35413       293  POPC      C210          -58.3647268896       36.2904599766       -7.7108206257  MEMB      293             0.0000000000
     35414       293  POPC      H101          -59.3938445827       35.9463696061       -7.5304908258  MEMB      293             0.0000000000
     35415       293  POPC      C211          -58.1528687918       37.6307465022       -7.0997981729  MEMB      293             0.0000000000
     35416       293  POPC      H11R          -58.9646768150       38.2817203660       -7.4890555870  MEMB      293             0.0000000000
     35417       293  POPC      H11S          -57.2290648402       38.1214977165       -7.4740579797  MEMB      293             0.0000000000
     35418       293  POPC      C212          -58.0569577710       37.6636351087       -5.5211051356  MEMB      293             0.0000000000
     35419       293  POPC      H12R          -59.0768708920       37.4102091340       -5.1607243846  MEMB      293             0.0000000000
     35420       293  POPC      H12S          -57.9005609484       38.7321201774       -5.2599523415  MEMB      293             0.0000000000
     35421       293  POPC      C213          -57.0592577238       36.7525049927       -4.8529596223  MEMB      293             0.0000000000
     35422       293  POPC      H13R          -56.0348489380       37.1096100264       -5.0925074778  MEMB      293             0.0000000000
     35423       293  POPC      H13S          -57.2454082796       35.7111611336       -5.1924766297  MEMB      293             0.0000000000
     35424       293  POPC      C214          -57.1512535879       36.7611460869       -3.2802540523  MEMB      293             0.0000000000
     35425       293  POPC      H14R          -58.1781472135       36.3869260088       -3.0808291023  MEMB      293             0.0000000000
     35426       293  POPC      H14S          -57.2363783838       37.8002122257       -2.8963057071  MEMB      293             0.0000000000
     35427       293  POPC      C215          -56.1869571222       35.9605275852       -2.4350346191  MEMB      293             0.0000000000
     35428       293  POPC      H15R          -55.1339598807       36.1835679356       -2.7103010015  MEMB      293             0.0000000000
     35429       293  POPC      H15S          -56.3039716889       34.8730078351       -2.6297888482  MEMB      293             0.0000000000
     35430       293  POPC      C216          -56.3079253852       36.3445551075       -0.8982172265  MEMB      293             0.0000000000
     35431       293  POPC      H16R          -56.3164792768       37.4243283085       -0.6368023421  MEMB      293             0.0000000000
     35432       293  POPC      H16S          -55.4281967498       35.8018522842       -0.4909429182  MEMB      293             0.0000000000
     35433       293  POPC      C217          -57.7035340560       35.9903178630       -0.2513107125  MEMB      293             0.0000000000
     35434       293  POPC      H17R          -58.1669055661       35.0923795517       -0.7131713817  MEMB      293             0.0000000000
     35435       293  POPC      H17S          -58.4111050403       36.8241663596       -0.4471703845  MEMB      293             0.0000000000
     35436       293  POPC      C218          -57.7124367731       35.4856553477        1.2427606215  MEMB      293             0.0000000000
     35437       293  POPC      H18R          -58.6807919861       35.7843228515        1.6981793862  MEMB      293             0.0000000000
     35438       293  POPC      H18S          -56.9448585095       36.1167550363        1.7396090740  MEMB      293             0.0000000000
     35439       293  POPC      H18T          -57.4989059667       34.4080404742        1.4085066018  MEMB      293             0.0000000000
     35440       293  POPC      C33           -51.6102230848       34.4026058312      -12.4126341824  MEMB      293             0.0000000000
     35441       293  POPC      H3X           -51.0139509362       33.9787947975      -13.2487950740  MEMB      293             0.0000000000
     35442       293  POPC      H3Y           -51.6589006399       33.7993605608      -11.4809443326  MEMB      293             0.0000000000
     35443       293  POPC      C34           -50.7966674118       35.6220928896      -11.9635319004  MEMB      293             0.0000000000
     35444       293  POPC      H4X           -50.6547192796       36.3198101268      -12.8163870745  MEMB      293             0.0000000000
     35445       293  POPC      H4Y           -49.7746997815       35.2797719125      -11.6938666822  MEMB      293             0.0000000000
     35446       293  POPC      C35           -51.3581175728       36.4381206005      -10.7470955491  MEMB      293             0.0000000000
     35447       293  POPC      H5X           -52.2024184416       37.0726494003      -11.0918420716  MEMB      293             0.0000000000
     35448       293  POPC      H5Y           -50.5718916940       37.1394777412      -10.3945782779  MEMB      293             0.0000000000
     35449       293  POPC      C36           -51.7944500817       35.5591525926       -9.5278878495  MEMB      293             0.0000000000
     35450       293  POPC      H6X           -50.9741648055       34.8564033165       -9.2678948497  MEMB      293             0.0000000000
     35451       293  POPC      H6Y           -52.7311372907       35.0482295371       -9.8375580331  MEMB      293             0.0000000000
     35452       293  POPC      C37           -52.0860344525       36.1896734426       -8.1010257278  MEMB      293             0.0000000000
     35453       293  POPC      H7X           -52.8923790288       36.9485725537       -8.1915891404  MEMB      293             0.0000000000
     35454       293  POPC      H7Y           -51.1382991641       36.6590786317       -7.7607644097  MEMB      293             0.0000000000
     35455       293  POPC      C38           -52.5255747899       35.2093313650       -7.0879165354  MEMB      293             0.0000000000
     35456       293  POPC      H8X           -51.7097848961       34.4554392708       -7.1092348689  MEMB      293             0.0000000000
     35457       293  POPC      H8Y           -53.4871845826       34.6720609728       -7.2327203243  MEMB      293             0.0000000000
     35458       293  POPC      C39           -52.5453080687       35.5887464660       -5.6293662384  MEMB      293             0.0000000000
     35459       293  POPC      H9X           -53.4149376963       36.2253042292       -5.3594417634  MEMB      293             0.0000000000
     35460       293  POPC      H9Y           -51.6801076323       36.2578476789       -5.4342951556  MEMB      293             0.0000000000
     35461       293  POPC      C310          -52.5844287349       34.4097903368       -4.6237481880  MEMB      293             0.0000000000
     35462       293  POPC      H10X          -52.6641280905       34.9558338849       -3.6594839597  MEMB      293             0.0000000000
     35463       293  POPC      H10Y          -51.6353404203       33.8345027550       -4.6747030838  MEMB      293             0.0000000000
     35464       293  POPC      C311          -53.8243771893       33.4766833835       -4.8212085213  MEMB      293             0.0000000000
     35465       293  POPC      H11X          -53.6981474909       33.2238501567       -5.8956675965  MEMB      293             0.0000000000
     35466       293  POPC      H11Y          -54.6963317533       34.1090201817       -4.5488736590  MEMB      293             0.0000000000
     35467       293  POPC      C312          -53.6048943229       32.2940221434       -3.7993688603  MEMB      293             0.0000000000
     35468       293  POPC      H12X          -52.5233747902       32.1000092973       -3.9636711574  MEMB      293             0.0000000000
     35469       293  POPC      H12Y          -54.4325797534       31.5765340802       -3.9850268386  MEMB      293             0.0000000000
     35470       293  POPC      C313          -53.7327288900       32.7776426684       -2.3770558060  MEMB      293             0.0000000000
     35471       293  POPC      H13X          -54.6610869995       33.3854724355       -2.3221460716  MEMB      293             0.0000000000
     35472       293  POPC      H13Y          -52.8653296919       33.3484292503       -1.9819074420  MEMB      293             0.0000000000
     35473       293  POPC      C314          -54.0044864965       31.5907988349       -1.3677510943  MEMB      293             0.0000000000
     35474       293  POPC      H14X          -53.1742024442       30.8986392105       -1.6243927880  MEMB      293             0.0000000000
     35475       293  POPC      H14Y          -54.9424412251       31.1116465925       -1.7212687702  MEMB      293             0.0000000000
     35476       293  POPC      C315          -54.0559919156       31.9507381153        0.1669496455  MEMB      293             0.0000000000
     35477       293  POPC      H15X          -54.7986224304       32.7562762368        0.3511476031  MEMB      293             0.0000000000
     35478       293  POPC      H15Y          -53.0661526737       32.3641888266        0.4560817602  MEMB      293             0.0000000000
     35479       293  POPC      C316          -54.5092059685       30.7382192043        1.0276210460  MEMB      293             0.0000000000
     35480       293  POPC      H16X          -53.6707483359       30.0112590685        0.9743406329  MEMB      293             0.0000000000
     35481       293  POPC      H16Y          -55.4238160651       30.2277356660        0.6571952530  MEMB      293             0.0000000000
     35482       293  POPC      H16Z          -54.7155111875       31.0602764456        2.0707126603  MEMB      293             0.0000000000
     35483       294  POPC      N             -39.7639697203       52.7914536016      -20.0779380882  MEMB      294             0.0000000000
     35484       294  POPC      C12           -38.5995826505       51.8231481411      -20.1083359033  MEMB      294             0.0000000000
     35485       294  POPC      H12A          -37.7919589397       52.3356821502      -20.6097866521  MEMB      294             0.0000000000
     35486       294  POPC      H12B          -38.8703232689       51.0069061698      -20.7616723430  MEMB      294             0.0000000000
     35487       294  POPC      C13           -39.5348218949       53.8739913318      -19.0718720213  MEMB      294             0.0000000000
     35488       294  POPC      H13A          -38.6064273929       54.4060297162      -19.2182239415  MEMB      294             0.0000000000
     35489       294  POPC      H13B          -40.3845449958       54.4945346352      -18.8283629882  MEMB      294             0.0000000000
     35490       294  POPC      H13C          -39.4479838579       53.2968791807      -18.1631362188  MEMB      294             0.0000000000
     35491       294  POPC      C14           -39.6788008910       53.4571872222      -21.5019487659  MEMB      294             0.0000000000
     35492       294  POPC      H14A          -40.3933586655       54.2650096197      -21.4451124560  MEMB      294             0.0000000000
     35493       294  POPC      H14B          -38.6467289807       53.6571823328      -21.7493950152  MEMB      294             0.0000000000
     35494       294  POPC      H14C          -40.0426604235       52.6732211475      -22.1495624283  MEMB      294             0.0000000000
     35495       294  POPC      C15           -41.1119545069       52.1378656680      -19.8998166735  MEMB      294             0.0000000000
     35496       294  POPC      H15A          -41.8482005522       52.9059631782      -19.7144304500  MEMB      294             0.0000000000
     35497       294  POPC      H15B          -41.0887883335       51.5403716138      -19.0004479316  MEMB      294             0.0000000000
     35498       294  POPC      H15C          -41.2952287513       51.4321629976      -20.6965564229  MEMB      294             0.0000000000
     35499       294  POPC      C11           -38.0793654897       51.1804770274      -18.8190619310  MEMB      294             0.0000000000
     35500       294  POPC      H11A          -37.4698442971       51.8878010658      -18.2169842893  MEMB      294             0.0000000000
     35501       294  POPC      H11B          -37.3897886213       50.3711029905      -19.1411153116  MEMB      294             0.0000000000
     35502       294  POPC      P             -39.6444133032       49.2478222728      -17.8964471901  MEMB      294             0.0000000000
     35503       294  POPC      O13           -40.3988391438       49.0480501177      -19.1710151657  MEMB      294             0.0000000000
     35504       294  POPC      O14           -40.2843460474       49.0939223715      -16.5583733450  MEMB      294             0.0000000000
     35505       294  POPC      O12           -39.1320367301       50.7682806951      -17.9330813101  MEMB      294             0.0000000000
     35506       294  POPC      O11           -38.2465905159       48.4324773287      -17.9621096094  MEMB      294             0.0000000000
     35507       294  POPC      C1            -38.2885960942       47.0120987907      -18.2432378759  MEMB      294             0.0000000000
     35508       294  POPC      HA            -37.4839991907       46.6779386462      -18.9326446440  MEMB      294             0.0000000000
     35509       294  POPC      HB            -39.2921671777       46.6985085618      -18.6021630283  MEMB      294             0.0000000000
     35510       294  POPC      C2            -38.1525994769       46.1779734267      -16.9520106618  MEMB      294             0.0000000000
     35511       294  POPC      HS            -38.0002163202       45.1045035131      -17.1944208094  MEMB      294             0.0000000000
     35512       294  POPC      O21           -39.2964366081       46.3898130186      -16.2150524523  MEMB      294             0.0000000000
     35513       294  POPC      C21           -39.6287782597       45.5884994960      -15.2300822969  MEMB      294             0.0000000000
     35514       294  POPC      O22           -38.9147952664       44.7099183205      -14.7474171048  MEMB      294             0.0000000000
     35515       294  POPC      C22           -41.0005630961       45.9370467653      -14.7020840321  MEMB      294             0.0000000000
     35516       294  POPC      H2R           -41.5709976913       44.9890235531      -14.8029675213  MEMB      294             0.0000000000
     35517       294  POPC      H2S           -41.4550025442       46.6059052824      -15.4639460579  MEMB      294             0.0000000000
     35518       294  POPC      C3            -36.9148612195       46.4477516444      -16.0350204854  MEMB      294             0.0000000000
     35519       294  POPC      HX            -35.9635635543       46.3446488511      -16.5995765826  MEMB      294             0.0000000000
     35520       294  POPC      HY            -36.9270867476       45.7068987938      -15.2071869044  MEMB      294             0.0000000000
     35521       294  POPC      O31           -36.9031947890       47.7582284823      -15.4741717422  MEMB      294             0.0000000000
     35522       294  POPC      C31           -35.9581258089       47.9258664082      -14.4933679175  MEMB      294             0.0000000000
     35523       294  POPC      O32           -35.1694193628       47.1129008097      -14.0688770794  MEMB      294             0.0000000000
     35524       294  POPC      C32           -36.1526977180       49.3728519506      -14.1268103762  MEMB      294             0.0000000000
     35525       294  POPC      H2X           -36.4256932201       49.9657076072      -15.0258746693  MEMB      294             0.0000000000
     35526       294  POPC      H2Y           -35.1877676501       49.6888822503      -13.6758609482  MEMB      294             0.0000000000
     35527       294  POPC      C23           -40.9488631262       46.1857770889      -13.2333697791  MEMB      294             0.0000000000
     35528       294  POPC      H3R           -40.2817209881       47.0440098018      -13.0038509533  MEMB      294             0.0000000000
     35529       294  POPC      H3S           -40.6336321549       45.3102967472      -12.6263402828  MEMB      294             0.0000000000
     35530       294  POPC      C24           -42.3337933967       46.5686261663      -12.6999352430  MEMB      294             0.0000000000
     35531       294  POPC      H4R           -42.9882070340       45.6776840643      -12.8107778656  MEMB      294             0.0000000000
     35532       294  POPC      H4S           -42.6812792748       47.4325986002      -13.3058448296  MEMB      294             0.0000000000
     35533       294  POPC      C25           -42.3303371193       47.2731192130      -11.2904771816  MEMB      294             0.0000000000
     35534       294  POPC      H5R           -43.3741006488       47.6221991459      -11.1387481720  MEMB      294             0.0000000000
     35535       294  POPC      H5S           -41.7272072463       48.1973428275      -11.4184087621  MEMB      294             0.0000000000
     35536       294  POPC      C26           -41.9374042814       46.3251709266      -10.1251939913  MEMB      294             0.0000000000
     35537       294  POPC      H6R           -41.0365139925       45.8324220484      -10.5493592187  MEMB      294             0.0000000000
     35538       294  POPC      H6S           -42.7549209188       45.5759018065      -10.0574898258  MEMB      294             0.0000000000
     35539       294  POPC      C27           -41.5333834955       47.0814384237       -8.8770411824  MEMB      294             0.0000000000
     35540       294  POPC      H7R           -40.6370318946       47.6545462184       -9.1970765924  MEMB      294             0.0000000000
     35541       294  POPC      H7S           -41.2265650731       46.4760201856       -7.9974670007  MEMB      294             0.0000000000
     35542       294  POPC      C28           -42.6252235571       48.1404870903       -8.5319933141  MEMB      294             0.0000000000
     35543       294  POPC      H8R           -42.8462559072       48.7580132339       -9.4287243511  MEMB      294             0.0000000000
     35544       294  POPC      H8S           -42.2119457288       48.8736030861       -7.8066913593  MEMB      294             0.0000000000
     35545       294  POPC      C29           -43.7657225985       47.4960082332       -7.7781055733  MEMB      294             0.0000000000
     35546       294  POPC      H91           -44.3883047344       46.8120469729       -8.3735795862  MEMB      294             0.0000000000
     35547       294  POPC      C210          -44.1343249930       47.8166664130       -6.4939162045  MEMB      294             0.0000000000
     35548       294  POPC      H101          -45.0333360764       47.3401825667       -6.0758949070  MEMB      294             0.0000000000
     35549       294  POPC      C211          -43.5420281104       48.7938728786       -5.5540408302  MEMB      294             0.0000000000
     35550       294  POPC      H11R          -44.4746257103       49.3363731998       -5.2889447663  MEMB      294             0.0000000000
     35551       294  POPC      H11S          -42.8861816489       49.5246642150       -6.0737817299  MEMB      294             0.0000000000
     35552       294  POPC      C212          -42.8767030928       48.1694385208       -4.3450094543  MEMB      294             0.0000000000
     35553       294  POPC      H12R          -41.8847649806       47.7010089274       -4.5209457150  MEMB      294             0.0000000000
     35554       294  POPC      H12S          -43.4800757210       47.3468228385       -3.9050487235  MEMB      294             0.0000000000
     35555       294  POPC      C213          -42.6194018459       49.1820810405       -3.2164761623  MEMB      294             0.0000000000
     35556       294  POPC      H13R          -43.6216402789       49.4296713749       -2.8059426060  MEMB      294             0.0000000000
     35557       294  POPC      H13S          -42.2423495250       50.1234836699       -3.6702535719  MEMB      294             0.0000000000
     35558       294  POPC      C214          -41.8903374343       48.7545471642       -1.9448788543  MEMB      294             0.0000000000
     35559       294  POPC      H14R          -42.0588043334       49.5499206239       -1.1876996664  MEMB      294             0.0000000000
     35560       294  POPC      H14S          -40.8000476392       48.7038626528       -2.1522927168  MEMB      294             0.0000000000
     35561       294  POPC      C215          -42.3087661300       47.3390714783       -1.3123005575  MEMB      294             0.0000000000
     35562       294  POPC      H15R          -41.9580750126       46.5005384399       -1.9512055762  MEMB      294             0.0000000000
     35563       294  POPC      H15S          -43.4190255008       47.3786535719       -1.3034544627  MEMB      294             0.0000000000
     35564       294  POPC      C216          -41.7329103329       46.9537785806        0.0324265248  MEMB      294             0.0000000000
     35565       294  POPC      H16R          -41.8474733479       45.8565372869        0.1637954487  MEMB      294             0.0000000000
     35566       294  POPC      H16S          -42.2591939538       47.5436988060        0.8130287651  MEMB      294             0.0000000000
     35567       294  POPC      C217          -40.2809655528       47.2529855599        0.1398940667  MEMB      294             0.0000000000
     35568       294  POPC      H17R          -40.1232939455       48.3276151394       -0.0938386392  MEMB      294             0.0000000000
     35569       294  POPC      H17S          -39.7412412692       46.6559067668       -0.6259485839  MEMB      294             0.0000000000
     35570       294  POPC      C218          -39.6551904033       46.8109822120        1.5016993487  MEMB      294             0.0000000000
     35571       294  POPC      H18R          -40.1472137887       47.4649494870        2.2530718332  MEMB      294             0.0000000000
     35572       294  POPC      H18S          -38.5489502281       46.9125658872        1.4863856694  MEMB      294             0.0000000000
     35573       294  POPC      H18T          -39.9456475407       45.7448573499        1.6171695786  MEMB      294             0.0000000000
     35574       294  POPC      C33           -37.3305081575       49.3992490979      -13.1384624115  MEMB      294             0.0000000000
     35575       294  POPC      H3X           -37.0250226515       48.6397972062      -12.3873081171  MEMB      294             0.0000000000
     35576       294  POPC      H3Y           -38.2590847121       49.1003730230      -13.6701951631  MEMB      294             0.0000000000
     35577       294  POPC      C34           -37.4588470118       50.7499571987      -12.4699050914  MEMB      294             0.0000000000
     35578       294  POPC      H4X           -38.2568467523       51.3005189787      -13.0124903104  MEMB      294             0.0000000000
     35579       294  POPC      H4Y           -36.5317271748       51.3611064560      -12.5054875174  MEMB      294             0.0000000000
     35580       294  POPC      C35           -38.1222262222       50.6505004371      -11.0122559938  MEMB      294             0.0000000000
     35581       294  POPC      H5X           -37.3825585087       50.1411847351      -10.3581843905  MEMB      294             0.0000000000
     35582       294  POPC      H5Y           -39.0435569305       50.0523731362      -11.1787325299  MEMB      294             0.0000000000
     35583       294  POPC      C36           -38.4203781166       51.9897119021      -10.3360841626  MEMB      294             0.0000000000
     35584       294  POPC      H6X           -38.7276003908       52.7229135100      -11.1121970734  MEMB      294             0.0000000000
     35585       294  POPC      H6Y           -37.5129309118       52.4525962349       -9.8926897066  MEMB      294             0.0000000000
     35586       294  POPC      C37           -39.4923313224       51.8502346699       -9.2679768632  MEMB      294             0.0000000000
     35587       294  POPC      H7X           -40.1808084187       51.0652556225       -9.6476186866  MEMB      294             0.0000000000
     35588       294  POPC      H7Y           -39.8747093618       52.8759369655       -9.0781259087  MEMB      294             0.0000000000
     35589       294  POPC      C38           -38.8168935988       51.2104247160       -8.0366024442  MEMB      294             0.0000000000
     35590       294  POPC      H8X           -37.8104980268       51.6401388065       -7.8446780535  MEMB      294             0.0000000000
     35591       294  POPC      H8Y           -38.7099054295       50.1347174935       -8.2929783903  MEMB      294             0.0000000000
     35592       294  POPC      C39           -39.8314584507       51.3883093978       -6.8127531878  MEMB      294             0.0000000000
     35593       294  POPC      H9X           -40.6988602410       50.7705194798       -7.1294089835  MEMB      294             0.0000000000
     35594       294  POPC      H9Y           -40.1555778130       52.4500673335       -6.8567673237  MEMB      294             0.0000000000
     35595       294  POPC      C310          -39.0677065243       50.9938001569       -5.4910803701  MEMB      294             0.0000000000
     35596       294  POPC      H10X          -39.7666792776       51.4905178884       -4.7846600594  MEMB      294             0.0000000000
     35597       294  POPC      H10Y          -38.0123158908       51.3404571211       -5.4737425980  MEMB      294             0.0000000000
     35598       294  POPC      C311          -39.1010526431       49.4543239163       -5.3619873885  MEMB      294             0.0000000000
     35599       294  POPC      H11X          -38.4947697283       48.9044321629       -6.1132267884  MEMB      294             0.0000000000
     35600       294  POPC      H11Y          -40.1559827570       49.1062780304       -5.3795227143  MEMB      294             0.0000000000
     35601       294  POPC      C312          -38.5259999178       49.0349871293       -4.0367773469  MEMB      294             0.0000000000
     35602       294  POPC      H12X          -38.9043272513       48.0592656468       -3.6637407050  MEMB      294             0.0000000000
     35603       294  POPC      H12Y          -38.7954042536       49.8067873479       -3.2844031951  MEMB      294             0.0000000000
     35604       294  POPC      C313          -37.0061539609       48.8139914345       -4.0253893649  MEMB      294             0.0000000000
     35605       294  POPC      H13X          -36.5559041986       49.8014467590       -4.2631452534  MEMB      294             0.0000000000
     35606       294  POPC      H13Y          -36.7379102993       47.9426016025       -4.6602483740  MEMB      294             0.0000000000
     35607       294  POPC      C314          -36.5570374818       48.4820775493       -2.5329331190  MEMB      294             0.0000000000
     35608       294  POPC      H14X          -35.4551670027       48.3818184147       -2.6336821947  MEMB      294             0.0000000000
     35609       294  POPC      H14Y          -36.9937358075       47.4790594550       -2.3391022482  MEMB      294             0.0000000000
     35610       294  POPC      C315          -36.7582127399       49.4506902784       -1.4420605118  MEMB      294             0.0000000000
     35611       294  POPC      H15X          -37.8564908194       49.6081585791       -1.3845273735  MEMB      294             0.0000000000
     35612       294  POPC      H15Y          -36.2775320199       50.4335204746       -1.6352254624  MEMB      294             0.0000000000
     35613       294  POPC      C316          -36.3587902624       48.8618576186       -0.0182312507  MEMB      294             0.0000000000
     35614       294  POPC      H16X          -36.8678882900       49.3755754976        0.8251160080  MEMB      294             0.0000000000
     35615       294  POPC      H16Y          -35.2690298057       48.7219052186        0.1465618261  MEMB      294             0.0000000000
     35616       294  POPC      H16Z          -36.8417646818       47.8659319768       -0.1140881866  MEMB      294             0.0000000000
     35617       295  POPC      N             -30.4855113755       57.7556675893      -17.8569714495  MEMB      295             0.0000000000
     35618       295  POPC      C12           -31.7092154409       57.2785630327      -18.5643932698  MEMB      295             0.0000000000
     35619       295  POPC      H12A          -32.0806328649       58.1451036522      -19.0912296018  MEMB      295             0.0000000000
     35620       295  POPC      H12B          -32.5432924115       57.1285574808      -17.8949054393  MEMB      295             0.0000000000
     35621       295  POPC      C13           -29.3322915710       58.0176009413      -18.8160120660  MEMB      295             0.0000000000
     35622       295  POPC      H13A          -29.5484981639       58.7282973019      -19.5999542136  MEMB      295             0.0000000000
     35623       295  POPC      H13B          -28.4486082431       58.3252292969      -18.2766898503  MEMB      295             0.0000000000
     35624       295  POPC      H13C          -29.1397192127       57.0544666732      -19.2651093524  MEMB      295             0.0000000000
     35625       295  POPC      C14           -30.8165628959       59.0064520335      -17.0943513368  MEMB      295             0.0000000000
     35626       295  POPC      H14A          -31.3928175644       58.7685053971      -16.2124715744  MEMB      295             0.0000000000
     35627       295  POPC      H14B          -29.8953171882       59.4571007860      -16.7557928744  MEMB      295             0.0000000000
     35628       295  POPC      H14C          -31.4140080332       59.6342111461      -17.7388492558  MEMB      295             0.0000000000
     35629       295  POPC      C15           -30.0475984244       56.6752996099      -16.8452688592  MEMB      295             0.0000000000
     35630       295  POPC      H15A          -30.7204560772       56.4966593111      -16.0195871265  MEMB      295             0.0000000000
     35631       295  POPC      H15B          -29.0914346818       56.8975140303      -16.3949668317  MEMB      295             0.0000000000
     35632       295  POPC      H15C          -30.0576173515       55.6902704549      -17.2880070184  MEMB      295             0.0000000000
     35633       295  POPC      C11           -31.4611860468       56.1851685224      -19.6479547780  MEMB      295             0.0000000000
     35634       295  POPC      H11A          -30.7436542072       56.5503146769      -20.4135508672  MEMB      295             0.0000000000
     35635       295  POPC      H11B          -32.4592415715       56.2183377466      -20.1348901991  MEMB      295             0.0000000000
     35636       295  POPC      P             -30.9665051733       53.7559725382      -20.1114193159  MEMB      295             0.0000000000
     35637       295  POPC      O13           -29.5241806320       53.8520965453      -20.5059879219  MEMB      295             0.0000000000
     35638       295  POPC      O14           -32.0493904359       53.8780498749      -21.1913644487  MEMB      295             0.0000000000
     35639       295  POPC      O12           -31.1539533099       54.9082939742      -19.0600302589  MEMB      295             0.0000000000
     35640       295  POPC      O11           -31.1540612428       52.4205659080      -19.3062462990  MEMB      295             0.0000000000
     35641       295  POPC      C1            -32.4202497736       52.0709167002      -18.7143670844  MEMB      295             0.0000000000
     35642       295  POPC      HA            -32.2779744971       50.9795534967      -18.5626928211  MEMB      295             0.0000000000
     35643       295  POPC      HB            -33.2543263170       52.2483057578      -19.4265261340  MEMB      295             0.0000000000
     35644       295  POPC      C2            -32.8806999384       52.6782144154      -17.4353470288  MEMB      295             0.0000000000
     35645       295  POPC      HS            -33.2643403189       53.6817906943      -17.7181465711  MEMB      295             0.0000000000
     35646       295  POPC      O21           -31.7902135505       52.7154472339      -16.5760062455  MEMB      295             0.0000000000
     35647       295  POPC      C21           -31.5071094732       53.8960676850      -15.9238074851  MEMB      295             0.0000000000
     35648       295  POPC      O22           -32.3204690130       54.7745318038      -15.7339832012  MEMB      295             0.0000000000
     35649       295  POPC      C22           -30.1572816765       53.7118519699      -15.2041318163  MEMB      295             0.0000000000
     35650       295  POPC      H2R           -29.5277709416       54.5880808029      -15.4691985869  MEMB      295             0.0000000000
     35651       295  POPC      H2S           -29.6986872333       52.7916559382      -15.6251439744  MEMB      295             0.0000000000
     35652       295  POPC      C3            -34.0604768146       51.8812729516      -16.7210038828  MEMB      295             0.0000000000
     35653       295  POPC      HX            -33.7320099618       50.8437370844      -16.4975096713  MEMB      295             0.0000000000
     35654       295  POPC      HY            -34.9145961346       51.7235630044      -17.4137727768  MEMB      295             0.0000000000
     35655       295  POPC      O31           -34.5717098708       52.6225884128      -15.6535828065  MEMB      295             0.0000000000
     35656       295  POPC      C31           -33.9185925079       52.4591887543      -14.5359718494  MEMB      295             0.0000000000
     35657       295  POPC      O32           -33.1393997784       51.5217506232      -14.2687973275  MEMB      295             0.0000000000
     35658       295  POPC      C32           -34.4975728320       53.4493959256      -13.5046745781  MEMB      295             0.0000000000
     35659       295  POPC      H2X           -35.6059079917       53.4240770733      -13.5772923636  MEMB      295             0.0000000000
     35660       295  POPC      H2Y           -34.1919381906       54.4957089208      -13.7194716909  MEMB      295             0.0000000000
     35661       295  POPC      C23           -30.4265254820       53.6835824493      -13.7206084453  MEMB      295             0.0000000000
     35662       295  POPC      H3R           -31.2641605732       52.9912820410      -13.4895051379  MEMB      295             0.0000000000
     35663       295  POPC      H3S           -30.7166467897       54.7207108123      -13.4476335919  MEMB      295             0.0000000000
     35664       295  POPC      C24           -29.1270624432       53.2913776394      -12.9523588263  MEMB      295             0.0000000000
     35665       295  POPC      H4R           -28.7281851640       52.3426629907      -13.3708779627  MEMB      295             0.0000000000
     35666       295  POPC      H4S           -29.4245271611       53.0210507279      -11.9166181212  MEMB      295             0.0000000000
     35667       295  POPC      C25           -28.1923104587       54.4654553969      -12.9348689279  MEMB      295             0.0000000000
     35668       295  POPC      H5R           -28.7807866577       55.2572187122      -12.4238624933  MEMB      295             0.0000000000
     35669       295  POPC      H5S           -27.9385019995       54.9162398563      -13.9180754001  MEMB      295             0.0000000000
     35670       295  POPC      C26           -26.9386106951       54.0890025487      -12.1711023582  MEMB      295             0.0000000000
     35671       295  POPC      H6R           -26.1517298726       54.8052859495      -12.4905978574  MEMB      295             0.0000000000
     35672       295  POPC      H6S           -26.6649693365       53.0460425576      -12.4388257652  MEMB      295             0.0000000000
     35673       295  POPC      C27           -27.0572256016       54.1591899971      -10.5999633741  MEMB      295             0.0000000000
     35674       295  POPC      H7R           -26.0616098623       54.0809488812      -10.1131898283  MEMB      295             0.0000000000
     35675       295  POPC      H7S           -27.6250802829       53.3759506900      -10.0537049378  MEMB      295             0.0000000000
     35676       295  POPC      C28           -27.6593661707       55.4378495513       -9.9234328234  MEMB      295             0.0000000000
     35677       295  POPC      H8R           -27.7695517016       56.2811876756      -10.6382485965  MEMB      295             0.0000000000
     35678       295  POPC      H8S           -26.9708460693       55.6740546713       -9.0841069184  MEMB      295             0.0000000000
     35679       295  POPC      C29           -29.0418715092       55.1616540654       -9.4312012255  MEMB      295             0.0000000000
     35680       295  POPC      H91           -29.7922911815       54.8594150462      -10.1765348861  MEMB      295             0.0000000000
     35681       295  POPC      C210          -29.5287900444       55.2963803802       -8.1774923393  MEMB      295             0.0000000000
     35682       295  POPC      H101          -30.5829044173       55.1567863895       -7.8957898612  MEMB      295             0.0000000000
     35683       295  POPC      C211          -28.8229678031       55.7701554486       -6.9442017995  MEMB      295             0.0000000000
     35684       295  POPC      H11R          -29.0050845446       56.8654770712       -6.9064522415  MEMB      295             0.0000000000
     35685       295  POPC      H11S          -27.7132123911       55.7175981851       -6.9428586534  MEMB      295             0.0000000000
     35686       295  POPC      C212          -29.2339624219       55.2034048208       -5.6115479233  MEMB      295             0.0000000000
     35687       295  POPC      H12R          -30.3295226835       55.2571413723       -5.4349668282  MEMB      295             0.0000000000
     35688       295  POPC      H12S          -28.5716544768       55.6621860476       -4.8465718273  MEMB      295             0.0000000000
     35689       295  POPC      C213          -29.0600211578       53.6898606494       -5.6158654923  MEMB      295             0.0000000000
     35690       295  POPC      H13R          -28.0579181289       53.5537485744       -6.0758486731  MEMB      295             0.0000000000
     35691       295  POPC      H13S          -29.8409450391       53.3440191353       -6.3264101307  MEMB      295             0.0000000000
     35692       295  POPC      C214          -29.1118627962       52.9786785497       -4.3385809580  MEMB      295             0.0000000000
     35693       295  POPC      H14R          -28.6302340460       51.9905931206       -4.4999560336  MEMB      295             0.0000000000
     35694       295  POPC      H14S          -30.1220399069       52.7331645758       -3.9466811941  MEMB      295             0.0000000000
     35695       295  POPC      C215          -28.2874977920       53.6348171633       -3.2155790929  MEMB      295             0.0000000000
     35696       295  POPC      H15R          -28.7195465352       54.6462139440       -3.0583173443  MEMB      295             0.0000000000
     35697       295  POPC      H15S          -27.2402177320       53.7282649628       -3.5744564497  MEMB      295             0.0000000000
     35698       295  POPC      C216          -28.3186150614       52.9825835313       -1.8675567526  MEMB      295             0.0000000000
     35699       295  POPC      H16R          -28.3435652941       51.8718642496       -1.8685917285  MEMB      295             0.0000000000
     35700       295  POPC      H16S          -29.2992700041       53.1089224728       -1.3609262062  MEMB      295             0.0000000000
     35701       295  POPC      C217          -27.3419835610       53.4817132491       -0.8440675677  MEMB      295             0.0000000000
     35702       295  POPC      H17R          -26.3793575892       52.9881215715       -1.0971281277  MEMB      295             0.0000000000
     35703       295  POPC      H17S          -27.7053975081       53.2145689938        0.1712575139  MEMB      295             0.0000000000
     35704       295  POPC      C218          -27.0230067955       54.9660502414       -0.7449572773  MEMB      295             0.0000000000
     35705       295  POPC      H18R          -26.6853985637       55.3948645229       -1.7126668610  MEMB      295             0.0000000000
     35706       295  POPC      H18S          -26.1915278122       55.1164068108       -0.0235998387  MEMB      295             0.0000000000
     35707       295  POPC      H18T          -27.8161596296       55.6675088835       -0.4085273150  MEMB      295             0.0000000000
     35708       295  POPC      C33           -33.9943773196       53.1307954541      -12.0446601192  MEMB      295             0.0000000000
     35709       295  POPC      H3X           -32.9351307777       53.4561054275      -11.9640914698  MEMB      295             0.0000000000
     35710       295  POPC      H3Y           -34.0720183982       52.0290509533      -11.9244426595  MEMB      295             0.0000000000
     35711       295  POPC      C34           -34.8807861124       53.7456447844      -11.0201356585  MEMB      295             0.0000000000
     35712       295  POPC      H4X           -35.8207588681       54.1072280464      -11.4892087826  MEMB      295             0.0000000000
     35713       295  POPC      H4Y           -34.3373115127       54.5644647675      -10.5019758351  MEMB      295             0.0000000000
     35714       295  POPC      C35           -35.3212445118       52.7670990936       -9.9087795667  MEMB      295             0.0000000000
     35715       295  POPC      H5X           -34.5092015242       52.1692767665       -9.4423935166  MEMB      295             0.0000000000
     35716       295  POPC      H5Y           -36.0312231800       52.0925469215      -10.4334044173  MEMB      295             0.0000000000
     35717       295  POPC      C36           -35.9456805489       53.3890075619       -8.7199585648  MEMB      295             0.0000000000
     35718       295  POPC      H6X           -36.5253125341       52.7058938680       -8.0629172523  MEMB      295             0.0000000000
     35719       295  POPC      H6Y           -36.7017057044       54.1056123508       -9.1062535919  MEMB      295             0.0000000000
     35720       295  POPC      C37           -35.0473335342       54.1938289533       -7.7966497307  MEMB      295             0.0000000000
     35721       295  POPC      H7X           -35.7653855320       54.8588746688       -7.2708774795  MEMB      295             0.0000000000
     35722       295  POPC      H7Y           -34.2803247050       54.7809621712       -8.3455518300  MEMB      295             0.0000000000
     35723       295  POPC      C38           -34.2643540832       53.3660215719       -6.6951574268  MEMB      295             0.0000000000
     35724       295  POPC      H8X           -33.9031519492       52.4226286210       -7.1576116120  MEMB      295             0.0000000000
     35725       295  POPC      H8Y           -34.9725241898       53.0600874539       -5.8956447322  MEMB      295             0.0000000000
     35726       295  POPC      C39           -33.1182579356       54.1982396325       -6.0660805347  MEMB      295             0.0000000000
     35727       295  POPC      H9X           -32.4567715098       54.2462935143       -6.9573981172  MEMB      295             0.0000000000
     35728       295  POPC      H9Y           -32.7199748060       53.7229838026       -5.1442217804  MEMB      295             0.0000000000
     35729       295  POPC      C310          -33.6399413635       55.6176548780       -5.8687589360  MEMB      295             0.0000000000
     35730       295  POPC      H10X          -34.6833521205       55.6589347118       -5.4894040476  MEMB      295             0.0000000000
     35731       295  POPC      H10Y          -33.5149921497       56.2497953365       -6.7738041786  MEMB      295             0.0000000000
     35732       295  POPC      C311          -32.9069775449       56.4454089803       -4.7648672876  MEMB      295             0.0000000000
     35733       295  POPC      H11X          -33.2966988183       57.4857773785       -4.7733477275  MEMB      295             0.0000000000
     35734       295  POPC      H11Y          -31.7999553126       56.4709980748       -4.8552436115  MEMB      295             0.0000000000
     35735       295  POPC      C312          -33.0997708374       56.0243030859       -3.2619982212  MEMB      295             0.0000000000
     35736       295  POPC      H12X          -32.5053994999       55.0922151708       -3.1512925704  MEMB      295             0.0000000000
     35737       295  POPC      H12Y          -34.1219260944       55.7392806459       -2.9329355172  MEMB      295             0.0000000000
     35738       295  POPC      C313          -32.5959178645       57.0311042131       -2.2019181301  MEMB      295             0.0000000000
     35739       295  POPC      H13X          -33.1464260668       57.9841952085       -2.3531763939  MEMB      295             0.0000000000
     35740       295  POPC      H13Y          -31.5277988666       57.2527911120       -2.4123888431  MEMB      295             0.0000000000
     35741       295  POPC      C314          -32.6017511460       56.7749420429       -0.7014460020  MEMB      295             0.0000000000
     35742       295  POPC      H14X          -31.6970531004       56.1701519147       -0.4776801886  MEMB      295             0.0000000000
     35743       295  POPC      H14Y          -33.3707616950       55.9786347808       -0.6074340620  MEMB      295             0.0000000000
     35744       295  POPC      C315          -32.9613148387       57.9710161848        0.2539838499  MEMB      295             0.0000000000
     35745       295  POPC      H15X          -33.7334094081       58.5188116733       -0.3274898676  MEMB      295             0.0000000000
     35746       295  POPC      H15Y          -31.9764268199       58.4851178817        0.2499566370  MEMB      295             0.0000000000
     35747       295  POPC      C316          -33.3458041303       57.5200038624        1.6580237478  MEMB      295             0.0000000000
     35748       295  POPC      H16X          -33.6129175482       58.4780645316        2.1530914909  MEMB      295             0.0000000000
     35749       295  POPC      H16Y          -32.5316405528       57.0285018354        2.2323797181  MEMB      295             0.0000000000
     35750       295  POPC      H16Z          -34.2563494533       56.8836273320        1.6739457632  MEMB      295             0.0000000000
     35751       296  POPC      N             -45.1159497548      -44.5311627429      -18.4449030513  MEMB      296             0.0000000000
     35752       296  POPC      C12           -45.0265258850      -46.0596043611      -18.7465576205  MEMB      296             0.0000000000
     35753       296  POPC      H12A          -44.5353358791      -46.4420948697      -17.8640422023  MEMB      296             0.0000000000
     35754       296  POPC      H12B          -44.5524538887      -46.2179694093      -19.7039375380  MEMB      296             0.0000000000
     35755       296  POPC      C13           -43.7084369989      -44.0453773987      -18.5228054808  MEMB      296             0.0000000000
     35756       296  POPC      H13A          -43.1624378348      -44.2721521868      -17.6190034176  MEMB      296             0.0000000000
     35757       296  POPC      H13B          -43.1944727118      -44.3922095549      -19.4070837652  MEMB      296             0.0000000000
     35758       296  POPC      H13C          -43.6451819071      -42.9677963149      -18.4879060103  MEMB      296             0.0000000000
     35759       296  POPC      C14           -45.7894225655      -43.8282375697      -19.6243363459  MEMB      296             0.0000000000
     35760       296  POPC      H14A          -45.4800136946      -44.1114591158      -20.6195507790  MEMB      296             0.0000000000
     35761       296  POPC      H14B          -46.8328365677      -44.1058897039      -19.5999123266  MEMB      296             0.0000000000
     35762       296  POPC      H14C          -45.7001196907      -42.7521003035      -19.6431446119  MEMB      296             0.0000000000
     35763       296  POPC      C15           -45.8368923063      -44.2748463590      -17.1957010133  MEMB      296             0.0000000000
     35764       296  POPC      H15A          -46.8901980223      -44.5122148037      -17.2202620884  MEMB      296             0.0000000000
     35765       296  POPC      H15B          -45.5921476488      -43.2559136881      -16.9344035224  MEMB      296             0.0000000000
     35766       296  POPC      H15C          -45.4899190387      -44.9636381376      -16.4396749232  MEMB      296             0.0000000000
     35767       296  POPC      C11           -46.2635302221      -46.8630903103      -18.6350722240  MEMB      296             0.0000000000
     35768       296  POPC      H11A          -46.5788123014      -46.7504846504      -17.5757147470  MEMB      296             0.0000000000
     35769       296  POPC      H11B          -45.8897642871      -47.8989452147      -18.7821245116  MEMB      296             0.0000000000
     35770       296  POPC      P             -48.6738535830      -46.8941043414      -19.6307691516  MEMB      296             0.0000000000
     35771       296  POPC      O13           -48.9995606826      -48.3577305259      -19.6470494088  MEMB      296             0.0000000000
     35772       296  POPC      O14           -49.3159034576      -46.1070255636      -20.7229436881  MEMB      296             0.0000000000
     35773       296  POPC      O12           -47.1048206201      -46.6491192879      -19.6879350876  MEMB      296             0.0000000000
     35774       296  POPC      O11           -48.9836400268      -46.3628723355      -18.1419269616  MEMB      296             0.0000000000
     35775       296  POPC      C1            -50.3266809060      -46.1767735699      -17.6974934636  MEMB      296             0.0000000000
     35776       296  POPC      HA            -50.8962797726      -47.1030788489      -17.9251706535  MEMB      296             0.0000000000
     35777       296  POPC      HB            -50.8470094138      -45.2859204660      -18.1097552368  MEMB      296             0.0000000000
     35778       296  POPC      C2            -50.4880006839      -46.0176721018      -16.1584764031  MEMB      296             0.0000000000
     35779       296  POPC      HS            -51.4831320064      -45.5257129019      -16.1136393607  MEMB      296             0.0000000000
     35780       296  POPC      O21           -49.4697014911      -45.2887351533      -15.6416424780  MEMB      296             0.0000000000
     35781       296  POPC      C21           -49.4516438318      -44.8127285826      -14.3560673121  MEMB      296             0.0000000000
     35782       296  POPC      O22           -50.4191093384      -44.9263399470      -13.5821880576  MEMB      296             0.0000000000
     35783       296  POPC      C22           -48.0338697200      -44.2932142785      -14.0445563755  MEMB      296             0.0000000000
     35784       296  POPC      H2R           -48.1315256388      -43.6407393505      -13.1506542850  MEMB      296             0.0000000000
     35785       296  POPC      H2S           -47.7130564329      -43.6004570805      -14.8517039177  MEMB      296             0.0000000000
     35786       296  POPC      C3            -50.4696333880      -47.4228107317      -15.4262385562  MEMB      296             0.0000000000
     35787       296  POPC      HX            -51.3861384402      -47.9578273640      -15.7550191477  MEMB      296             0.0000000000
     35788       296  POPC      HY            -50.5669486293      -47.1584551051      -14.3515448170  MEMB      296             0.0000000000
     35789       296  POPC      O31           -49.2368859047      -48.1028377654      -15.7121820177  MEMB      296             0.0000000000
     35790       296  POPC      C31           -49.0236127023      -49.1357936289      -14.9017290401  MEMB      296             0.0000000000
     35791       296  POPC      O32           -49.7337719365      -49.4396491800      -13.9899970992  MEMB      296             0.0000000000
     35792       296  POPC      C32           -47.7668792558      -49.8415227260      -15.4331110667  MEMB      296             0.0000000000
     35793       296  POPC      H2X           -47.0090293159      -49.1912481187      -15.9200683659  MEMB      296             0.0000000000
     35794       296  POPC      H2Y           -48.0331358516      -50.5738885942      -16.2249878012  MEMB      296             0.0000000000
     35795       296  POPC      C23           -47.2225851956      -45.5266237045      -13.6527400396  MEMB      296             0.0000000000
     35796       296  POPC      H3R           -47.0241310062      -46.0765740509      -14.5974577694  MEMB      296             0.0000000000
     35797       296  POPC      H3S           -47.8192652637      -46.2384939759      -13.0432036850  MEMB      296             0.0000000000
     35798       296  POPC      C24           -45.8967964594      -45.2917235063      -13.1067416694  MEMB      296             0.0000000000
     35799       296  POPC      H4R           -45.1348279276      -44.9475086706      -13.8383436716  MEMB      296             0.0000000000
     35800       296  POPC      H4S           -45.3828874880      -46.2318118240      -12.8127136865  MEMB      296             0.0000000000
     35801       296  POPC      C25           -45.9222321322      -44.2989126774      -11.9424500416  MEMB      296             0.0000000000
     35802       296  POPC      H5R           -46.4146311565      -44.7306225490      -11.0449586082  MEMB      296             0.0000000000
     35803       296  POPC      H5S           -46.3415213967      -43.2884543876      -12.1360772240  MEMB      296             0.0000000000
     35804       296  POPC      C26           -44.4948647909      -44.0157541184      -11.3497487776  MEMB      296             0.0000000000
     35805       296  POPC      H6R           -44.6282955597      -43.2088085782      -10.5978476452  MEMB      296             0.0000000000
     35806       296  POPC      H6S           -43.9097700723      -43.4999014364      -12.1408757133  MEMB      296             0.0000000000
     35807       296  POPC      C27           -43.7830561680      -45.1312052822      -10.6523324911  MEMB      296             0.0000000000
     35808       296  POPC      H7R           -43.2629411607      -45.8023882551      -11.3687927994  MEMB      296             0.0000000000
     35809       296  POPC      H7S           -44.5684741724      -45.7115617025      -10.1225911268  MEMB      296             0.0000000000
     35810       296  POPC      C28           -42.7803536161      -44.8021957988       -9.4837847079  MEMB      296             0.0000000000
     35811       296  POPC      H8R           -41.9794767472      -44.1544280410       -9.9000942977  MEMB      296             0.0000000000
     35812       296  POPC      H8S           -42.3660798834      -45.7300232061       -9.0345241364  MEMB      296             0.0000000000
     35813       296  POPC      C29           -43.4433629215      -44.0152982224       -8.3406968226  MEMB      296             0.0000000000
     35814       296  POPC      H91           -43.6295592221      -42.9583819364       -8.5820648627  MEMB      296             0.0000000000
     35815       296  POPC      C210          -43.5703376711      -44.4847101542       -7.0882466582  MEMB      296             0.0000000000
     35816       296  POPC      H101          -43.8875068032      -43.7754506753       -6.3095590028  MEMB      296             0.0000000000
     35817       296  POPC      C211          -43.0983653458      -45.8143534122       -6.4237205973  MEMB      296             0.0000000000
     35818       296  POPC      H11R          -42.5145646186      -45.4629621642       -5.5462121621  MEMB      296             0.0000000000
     35819       296  POPC      H11S          -42.2544274858      -46.2072191878       -7.0301412258  MEMB      296             0.0000000000
     35820       296  POPC      C212          -44.1637960752      -46.8957906725       -6.0250734335  MEMB      296             0.0000000000
     35821       296  POPC      H12R          -43.6502812522      -47.8233478092       -5.6930169719  MEMB      296             0.0000000000
     35822       296  POPC      H12S          -44.7734674018      -47.1263186363       -6.9247836711  MEMB      296             0.0000000000
     35823       296  POPC      C213          -45.2393722163      -46.4373950504       -4.9844226934  MEMB      296             0.0000000000
     35824       296  POPC      H13R          -46.1116190595      -47.1215717484       -5.0579663600  MEMB      296             0.0000000000
     35825       296  POPC      H13S          -45.5994325803      -45.3974580467       -5.1367663229  MEMB      296             0.0000000000
     35826       296  POPC      C214          -44.7891768078      -46.4152152007       -3.4135452120  MEMB      296             0.0000000000
     35827       296  POPC      H14R          -44.1464228817      -47.3047552388       -3.2406092307  MEMB      296             0.0000000000
     35828       296  POPC      H14S          -45.7146099468      -46.5843483752       -2.8225386161  MEMB      296             0.0000000000
     35829       296  POPC      C215          -44.0199437201      -45.1570159665       -3.0165193312  MEMB      296             0.0000000000
     35830       296  POPC      H15R          -44.6641197041      -44.3050522444       -3.3223237075  MEMB      296             0.0000000000
     35831       296  POPC      H15S          -43.0635090325      -44.9702437341       -3.5500641534  MEMB      296             0.0000000000
     35832       296  POPC      C216          -43.8972259385      -45.0319308920       -1.5247707649  MEMB      296             0.0000000000
     35833       296  POPC      H16R          -43.3142986349      -45.9129137429       -1.1806982635  MEMB      296             0.0000000000
     35834       296  POPC      H16S          -44.9150986013      -45.1064463782       -1.0857913542  MEMB      296             0.0000000000
     35835       296  POPC      C217          -43.1188465162      -43.8072146154       -1.0228351081  MEMB      296             0.0000000000
     35836       296  POPC      H17R          -43.3286788630      -42.8857240782       -1.6069120938  MEMB      296             0.0000000000
     35837       296  POPC      H17S          -42.0369152935      -44.0595038349       -1.0130267872  MEMB      296             0.0000000000
     35838       296  POPC      C218          -43.5413466688      -43.6259450941        0.4037413550  MEMB      296             0.0000000000
     35839       296  POPC      H18R          -44.5385740201      -43.1399957218        0.4646712292  MEMB      296             0.0000000000
     35840       296  POPC      H18S          -42.9432991997      -42.9053658554        1.0015928323  MEMB      296             0.0000000000
     35841       296  POPC      H18T          -43.5801281774      -44.5518516585        1.0165335513  MEMB      296             0.0000000000
     35842       296  POPC      C33           -47.0392734277      -50.5174736700      -14.2787430244  MEMB      296             0.0000000000
     35843       296  POPC      H3X           -46.4495696490      -51.3275593910      -14.7586716439  MEMB      296             0.0000000000
     35844       296  POPC      H3Y           -47.7354884817      -50.9842703025      -13.5495611126  MEMB      296             0.0000000000
     35845       296  POPC      C34           -45.9190498530      -49.8189832260      -13.4251504464  MEMB      296             0.0000000000
     35846       296  POPC      H4X           -45.4748961027      -49.0390669499      -14.0799629609  MEMB      296             0.0000000000
     35847       296  POPC      H4Y           -45.2667456236      -50.6409702974      -13.0602429580  MEMB      296             0.0000000000
     35848       296  POPC      C35           -46.4983480737      -49.1052224201      -12.1272924296  MEMB      296             0.0000000000
     35849       296  POPC      H5X           -47.1359078503      -48.2571312964      -12.4568068873  MEMB      296             0.0000000000
     35850       296  POPC      H5Y           -45.7159083708      -48.7640058783      -11.4161802181  MEMB      296             0.0000000000
     35851       296  POPC      C36           -47.4504227644      -50.0078172445      -11.3355382235  MEMB      296             0.0000000000
     35852       296  POPC      H6X           -46.9436570158      -50.9770243430      -11.1402253737  MEMB      296             0.0000000000
     35853       296  POPC      H6Y           -48.3112825236      -50.2119917478      -12.0075162417  MEMB      296             0.0000000000
     35854       296  POPC      C37           -47.9927758596      -49.5663622688       -9.9914180118  MEMB      296             0.0000000000
     35855       296  POPC      H7X           -47.2838958181      -49.3538654777       -9.1627711177  MEMB      296             0.0000000000
     35856       296  POPC      H7Y           -48.7088342612      -50.3441318920       -9.6498688575  MEMB      296             0.0000000000
     35857       296  POPC      C38           -48.7100665901      -48.1950558291       -9.9976432898  MEMB      296             0.0000000000
     35858       296  POPC      H8X           -49.5743057081      -48.2474431198      -10.6938233309  MEMB      296             0.0000000000
     35859       296  POPC      H8Y           -47.9257039929      -47.5735664987      -10.4801857583  MEMB      296             0.0000000000
     35860       296  POPC      C39           -49.0747116207      -47.8463348048       -8.5687674469  MEMB      296             0.0000000000
     35861       296  POPC      H9X           -48.2147102171      -47.9237260917       -7.8696752015  MEMB      296             0.0000000000
     35862       296  POPC      H9Y           -49.8028735055      -48.6494577197       -8.3256728501  MEMB      296             0.0000000000
     35863       296  POPC      C310          -49.6116117487      -46.4282066863       -8.4206043046  MEMB      296             0.0000000000
     35864       296  POPC      H10X          -50.5091058420      -46.2466192697       -9.0497718619  MEMB      296             0.0000000000
     35865       296  POPC      H10Y          -48.7874071568      -45.8265217091       -8.8599023987  MEMB      296             0.0000000000
     35866       296  POPC      C311          -49.9735084481      -46.1831332068       -6.9704180172  MEMB      296             0.0000000000
     35867       296  POPC      H11X          -49.2682892652      -46.7049156483       -6.2887066862  MEMB      296             0.0000000000
     35868       296  POPC      H11Y          -50.9965567473      -46.5380294361       -6.7219385715  MEMB      296             0.0000000000
     35869       296  POPC      C312          -49.8676243453      -44.6755845716       -6.5909773637  MEMB      296             0.0000000000
     35870       296  POPC      H12X          -50.5914312389      -44.0733053051       -7.1806247770  MEMB      296             0.0000000000
     35871       296  POPC      H12Y          -48.9286899306      -44.3075820188       -7.0571289070  MEMB      296             0.0000000000
     35872       296  POPC      C313          -50.0192262705      -44.4337571496       -5.0850592310  MEMB      296             0.0000000000
     35873       296  POPC      H13X          -50.9846153693      -44.8744377146       -4.7562035798  MEMB      296             0.0000000000
     35874       296  POPC      H13Y          -49.9976653397      -43.3320381646       -4.9433838300  MEMB      296             0.0000000000
     35875       296  POPC      C314          -48.9114618397      -45.0155992973       -4.1271813613  MEMB      296             0.0000000000
     35876       296  POPC      H14X          -47.8784459976      -44.7453885967       -4.4340776683  MEMB      296             0.0000000000
     35877       296  POPC      H14Y          -49.0126614041      -46.1214393262       -4.1617885814  MEMB      296             0.0000000000
     35878       296  POPC      C315          -49.0621696368      -44.3230967776       -2.7097676415  MEMB      296             0.0000000000
     35879       296  POPC      H15X          -50.1581906757      -44.3228192669       -2.5279483033  MEMB      296             0.0000000000
     35880       296  POPC      H15Y          -48.7848601920      -43.2490395933       -2.7715844642  MEMB      296             0.0000000000
     35881       296  POPC      C316          -48.3260086408      -44.9785887620       -1.6404404573  MEMB      296             0.0000000000
     35882       296  POPC      H16X          -48.5100703316      -44.3749726789       -0.7260621887  MEMB      296             0.0000000000
     35883       296  POPC      H16Y          -47.2404185109      -45.0791410750       -1.8542271197  MEMB      296             0.0000000000
     35884       296  POPC      H16Z          -48.6445582529      -46.0288304133       -1.4676999272  MEMB      296             0.0000000000
     35885       297  POPC      N              55.1182931921       29.2239943050      -18.9979803806  MEMB      297             0.0000000000
     35886       297  POPC      C12            56.2532997463       28.1916971506      -19.4488114431  MEMB      297             0.0000000000
     35887       297  POPC      H12A           56.2385238759       28.2202642271      -20.5283324674  MEMB      297             0.0000000000
     35888       297  POPC      H12B           55.9016051004       27.1951387263      -19.2261412658  MEMB      297             0.0000000000
     35889       297  POPC      C13            54.0303546659       28.9326342652      -20.0216083336  MEMB      297             0.0000000000
     35890       297  POPC      H13A           53.5526858127       27.9640108032      -20.0206169219  MEMB      297             0.0000000000
     35891       297  POPC      H13B           53.2982727208       29.7264932436      -20.0059914373  MEMB      297             0.0000000000
     35892       297  POPC      H13C           54.4747990576       29.0086532608      -21.0029799546  MEMB      297             0.0000000000
     35893       297  POPC      C14            54.6984535410       28.9088834794      -17.6430979296  MEMB      297             0.0000000000
     35894       297  POPC      H14A           53.7902115234       29.3517543422      -17.2618343348  MEMB      297             0.0000000000
     35895       297  POPC      H14B           54.7250431926       27.8438968050      -17.4656259138  MEMB      297             0.0000000000
     35896       297  POPC      H14C           55.4209965748       29.3203219873      -16.9538594382  MEMB      297             0.0000000000
     35897       297  POPC      C15            55.5489305461       30.6812171618      -19.0325291323  MEMB      297             0.0000000000
     35898       297  POPC      H15A           56.4597206476       30.7237725466      -18.4536937751  MEMB      297             0.0000000000
     35899       297  POPC      H15B           54.7155836304       31.0448535734      -18.4496901207  MEMB      297             0.0000000000
     35900       297  POPC      H15C           55.6293282822       31.2015020492      -19.9755242428  MEMB      297             0.0000000000
     35901       297  POPC      C11            57.6555538401       28.4723123645      -18.9150852235  MEMB      297             0.0000000000
     35902       297  POPC      H11A           58.3373980490       27.6306949292      -19.1622483623  MEMB      297             0.0000000000
     35903       297  POPC      H11B           57.6698196889       28.5079226804      -17.8047477105  MEMB      297             0.0000000000
     35904       297  POPC      P              59.2913122060       30.5987342139      -19.0492833364  MEMB      297             0.0000000000
     35905       297  POPC      O13            58.8294415650       31.9845232247      -19.2644403157  MEMB      297             0.0000000000
     35906       297  POPC      O14            60.6113613822       30.0834764159      -19.5830593753  MEMB      297             0.0000000000
     35907       297  POPC      O12            58.1924820708       29.6652839799      -19.5453350988  MEMB      297             0.0000000000
     35908       297  POPC      O11            59.2633636458       30.3481119371      -17.4987694350  MEMB      297             0.0000000000
     35909       297  POPC      C1             59.9942145607       31.2772305008      -16.7014768843  MEMB      297             0.0000000000
     35910       297  POPC      HA             59.5952930377       32.3112136834      -16.7793313679  MEMB      297             0.0000000000
     35911       297  POPC      HB             61.0566390825       31.2397531472      -17.0242316917  MEMB      297             0.0000000000
     35912       297  POPC      C2             59.8480798450       30.8697184769      -15.1782930741  MEMB      297             0.0000000000
     35913       297  POPC      HS             60.7060539727       31.3598432412      -14.6703770407  MEMB      297             0.0000000000
     35914       297  POPC      O21            59.9391018106       29.3998767619      -14.9935823483  MEMB      297             0.0000000000
     35915       297  POPC      C21            61.2288974895       28.9256634014      -15.0218631459  MEMB      297             0.0000000000
     35916       297  POPC      O22            62.2519363067       29.5571013876      -15.2246904399  MEMB      297             0.0000000000
     35917       297  POPC      C22            61.0730472870       27.5381919949      -14.4511198630  MEMB      297             0.0000000000
     35918       297  POPC      H2R            61.6740885784       26.7595334791      -14.9676092745  MEMB      297             0.0000000000
     35919       297  POPC      H2S            60.1181209459       26.9704282699      -14.4601406236  MEMB      297             0.0000000000
     35920       297  POPC      C3             58.5429162253       31.4092943237      -14.5788869320  MEMB      297             0.0000000000
     35921       297  POPC      HX             57.7225953225       31.2547333166      -15.3120345415  MEMB      297             0.0000000000
     35922       297  POPC      HY             58.6573960838       32.4962897578      -14.3797477471  MEMB      297             0.0000000000
     35923       297  POPC      O31            58.2340795425       30.7300342484      -13.2717187654  MEMB      297             0.0000000000
     35924       297  POPC      C31            57.2713813229       29.7451720395      -13.2484117304  MEMB      297             0.0000000000
     35925       297  POPC      O32            56.7165857478       29.2836060037      -14.2121072644  MEMB      297             0.0000000000
     35926       297  POPC      C32            56.9942253514       29.4142430138      -11.8050166148  MEMB      297             0.0000000000
     35927       297  POPC      H2X            56.9162068065       30.3533535950      -11.2165394180  MEMB      297             0.0000000000
     35928       297  POPC      H2Y            57.9122115112       28.9361989687      -11.4011648570  MEMB      297             0.0000000000
     35929       297  POPC      C23            61.6984756325       27.4523008267      -13.0021171423  MEMB      297             0.0000000000
     35930       297  POPC      H3R            62.6024876540       28.0966088678      -12.9579497159  MEMB      297             0.0000000000
     35931       297  POPC      H3S            61.9959687716       26.3872582881      -12.8948651135  MEMB      297             0.0000000000
     35932       297  POPC      C24            60.5883641813       27.7511002120      -11.9199707060  MEMB      297             0.0000000000
     35933       297  POPC      H4R            60.0649053658       26.8133058424      -11.6356226010  MEMB      297             0.0000000000
     35934       297  POPC      H4S            59.8271689601       28.3414634119      -12.4734816063  MEMB      297             0.0000000000
     35935       297  POPC      C25            61.0629988444       28.4066916149      -10.6049780353  MEMB      297             0.0000000000
     35936       297  POPC      H5R            61.6566732604       27.5313593782      -10.2648833572  MEMB      297             0.0000000000
     35937       297  POPC      H5S            60.1594243953       28.5665688372       -9.9786289223  MEMB      297             0.0000000000
     35938       297  POPC      C26            61.9467201713       29.6612578683      -10.6696501883  MEMB      297             0.0000000000
     35939       297  POPC      H6R            62.8307831115       29.4904882592      -11.3204900447  MEMB      297             0.0000000000
     35940       297  POPC      H6S            62.3626667023       29.6887656592       -9.6398194805  MEMB      297             0.0000000000
     35941       297  POPC      C27            61.1980182595       30.9335925376      -10.9268882097  MEMB      297             0.0000000000
     35942       297  POPC      H7R            60.8717219071       30.9301445041      -11.9888864959  MEMB      297             0.0000000000
     35943       297  POPC      H7S            61.8373937534       31.7992308140      -10.6508617102  MEMB      297             0.0000000000
     35944       297  POPC      C28            59.9337652682       31.2177901200      -10.0570066058  MEMB      297             0.0000000000
     35945       297  POPC      H8R            59.2181428693       30.3891315738      -10.2455022448  MEMB      297             0.0000000000
     35946       297  POPC      H8S            59.4139898757       32.1535460670      -10.3545215092  MEMB      297             0.0000000000
     35947       297  POPC      C29            60.2699125613       31.4745756529       -8.5651098696  MEMB      297             0.0000000000
     35948       297  POPC      H91            61.0412737780       32.2511095759       -8.4555776747  MEMB      297             0.0000000000
     35949       297  POPC      C210           59.7103796821       30.9288402354       -7.4513577900  MEMB      297             0.0000000000
     35950       297  POPC      H101           60.1734724062       31.2871606427       -6.5201473082  MEMB      297             0.0000000000
     35951       297  POPC      C211           58.5593715442       29.9093320487       -7.3476462474  MEMB      297             0.0000000000
     35952       297  POPC      H11R           58.9159070988       28.9206234841       -6.9875639896  MEMB      297             0.0000000000
     35953       297  POPC      H11S           58.1238278775       29.7135509358       -8.3507872526  MEMB      297             0.0000000000
     35954       297  POPC      C212           57.4200586523       30.2744346324       -6.4805829373  MEMB      297             0.0000000000
     35955       297  POPC      H12R           57.7801893965       30.8601360172       -5.6078971372  MEMB      297             0.0000000000
     35956       297  POPC      H12S           56.9564648274       29.2965033669       -6.2294807509  MEMB      297             0.0000000000
     35957       297  POPC      C213           56.4056333469       31.1526501355       -7.2022984179  MEMB      297             0.0000000000
     35958       297  POPC      H13R           55.7419588056       30.4362248712       -7.7320079041  MEMB      297             0.0000000000
     35959       297  POPC      H13S           57.0349448445       31.7788488473       -7.8702525161  MEMB      297             0.0000000000
     35960       297  POPC      C214           55.5840269475       32.0248512443       -6.2687237284  MEMB      297             0.0000000000
     35961       297  POPC      H14R           54.8372037655       32.6405653905       -6.8141341928  MEMB      297             0.0000000000
     35962       297  POPC      H14S           56.2470376951       32.8297187295       -5.8854143985  MEMB      297             0.0000000000
     35963       297  POPC      C215           54.8377496815       31.2434645246       -5.1883499730  MEMB      297             0.0000000000
     35964       297  POPC      H15R           55.6235517727       30.5839740934       -4.7618425577  MEMB      297             0.0000000000
     35965       297  POPC      H15S           54.1306829133       30.5804228044       -5.7312623922  MEMB      297             0.0000000000
     35966       297  POPC      C216           54.2557260500       32.0694437603       -3.9752952315  MEMB      297             0.0000000000
     35967       297  POPC      H16R           53.5589083706       32.8912648157       -4.2461758712  MEMB      297             0.0000000000
     35968       297  POPC      H16S           55.0581901049       32.6327363333       -3.4527306607  MEMB      297             0.0000000000
     35969       297  POPC      C217           53.6307435325       31.3301506626       -2.8174760308  MEMB      297             0.0000000000
     35970       297  POPC      H17R           52.6817980095       30.9339793418       -3.2380369459  MEMB      297             0.0000000000
     35971       297  POPC      H17S           53.3243493326       32.0367492491       -2.0167497960  MEMB      297             0.0000000000
     35972       297  POPC      C218           54.4417568304       30.1958911650       -2.1776546998  MEMB      297             0.0000000000
     35973       297  POPC      H18R           55.1370145280       30.5350418769       -1.3802123717  MEMB      297             0.0000000000
     35974       297  POPC      H18S           55.1229396539       29.6489643770       -2.8640825456  MEMB      297             0.0000000000
     35975       297  POPC      H18T           53.7856853014       29.4075390981       -1.7505810400  MEMB      297             0.0000000000
     35976       297  POPC      C33            55.6728890802       28.6290301612      -11.6678598129  MEMB      297             0.0000000000
     35977       297  POPC      H3X            55.7175805538       27.7160140093      -12.2993066835  MEMB      297             0.0000000000
     35978       297  POPC      H3Y            54.8622357476       29.2899632672      -12.0424661476  MEMB      297             0.0000000000
     35979       297  POPC      C34            55.3468098727       28.3314268468      -10.1759583834  MEMB      297             0.0000000000
     35980       297  POPC      H4X            54.5326792711       27.5839065055      -10.2887661708  MEMB      297             0.0000000000
     35981       297  POPC      H4Y            54.8984779810       29.2336733386       -9.7076949030  MEMB      297             0.0000000000
     35982       297  POPC      C35            56.4293513741       27.6667426014       -9.3798058440  MEMB      297             0.0000000000
     35983       297  POPC      H5X            56.2323428757       27.9155549054       -8.3150981642  MEMB      297             0.0000000000
     35984       297  POPC      H5Y            57.4686993762       28.0461598532       -9.4803999668  MEMB      297             0.0000000000
     35985       297  POPC      C36            56.4657538091       26.0715309066       -9.2618206419  MEMB      297             0.0000000000
     35986       297  POPC      H6X            56.7953291729       25.7113395021      -10.2598000611  MEMB      297             0.0000000000
     35987       297  POPC      H6Y            55.4191764397       25.7900343879       -9.0173697569  MEMB      297             0.0000000000
     35988       297  POPC      C37            57.4753616982       25.4486325341       -8.2230196969  MEMB      297             0.0000000000
     35989       297  POPC      H7X            58.4955000780       25.7344965942       -8.5575647100  MEMB      297             0.0000000000
     35990       297  POPC      H7Y            57.3308851544       24.3517542687       -8.3245351721  MEMB      297             0.0000000000
     35991       297  POPC      C38            57.4598956652       26.0088968241       -6.7994861281  MEMB      297             0.0000000000
     35992       297  POPC      H8X            56.6457338429       25.5828128270       -6.1750546490  MEMB      297             0.0000000000
     35993       297  POPC      H8Y            57.3690514571       27.1160902386       -6.8133092945  MEMB      297             0.0000000000
     35994       297  POPC      C39            58.6844698967       25.7359751250       -6.0022848156  MEMB      297             0.0000000000
     35995       297  POPC      H9X            59.6387683241       26.1835128227       -6.3534898505  MEMB      297             0.0000000000
     35996       297  POPC      H9Y            58.9122266763       24.6675582704       -6.2046037302  MEMB      297             0.0000000000
     35997       297  POPC      C310           58.5285414159       26.0775084458       -4.4578034689  MEMB      297             0.0000000000
     35998       297  POPC      H10X           59.5025059774       25.9942805698       -3.9298005655  MEMB      297             0.0000000000
     35999       297  POPC      H10Y           57.7944937302       25.3970369068       -3.9756697504  MEMB      297             0.0000000000
     36000       297  POPC      C311           58.0996366785       27.5330968060       -4.0753321775  MEMB      297             0.0000000000
     36001       297  POPC      H11X           57.0353432091       27.7070870851       -4.3424049177  MEMB      297             0.0000000000
     36002       297  POPC      H11Y           58.7300304411       28.2772855176       -4.6074108545  MEMB      297             0.0000000000
     36003       297  POPC      C312           58.2489824852       27.7734504722       -2.5846223993  MEMB      297             0.0000000000
     36004       297  POPC      H12X           59.2073349608       27.3264494723       -2.2439298717  MEMB      297             0.0000000000
     36005       297  POPC      H12Y           57.4193782779       27.1549732366       -2.1801912977  MEMB      297             0.0000000000
     36006       297  POPC      C313           58.2778179780       29.1712303262       -2.0466113416  MEMB      297             0.0000000000
     36007       297  POPC      H13X           58.2767097922       29.1717293589       -0.9356124461  MEMB      297             0.0000000000
     36008       297  POPC      H13Y           57.2714772130       29.6133231743       -2.2083308533  MEMB      297             0.0000000000
     36009       297  POPC      C314           59.4534202410       30.0167893975       -2.3819527322  MEMB      297             0.0000000000
     36010       297  POPC      H14X           59.3828316882       30.3836907636       -3.4282427114  MEMB      297             0.0000000000
     36011       297  POPC      H14Y           60.3799473129       29.4040849094       -2.4034519325  MEMB      297             0.0000000000
     36012       297  POPC      C315           59.7684705753       31.1482170394       -1.3257114225  MEMB      297             0.0000000000
     36013       297  POPC      H15X           60.0166614477       30.5625388835       -0.4148301796  MEMB      297             0.0000000000
     36014       297  POPC      H15Y           58.8002171593       31.6928845595       -1.3137032487  MEMB      297             0.0000000000
     36015       297  POPC      C316           60.8948398851       32.0486210918       -1.5926661778  MEMB      297             0.0000000000
     36016       297  POPC      H16X           61.8574352042       31.5076605415       -1.4698120277  MEMB      297             0.0000000000
     36017       297  POPC      H16Y           60.8997770122       32.6816172971       -0.6796420757  MEMB      297             0.0000000000
     36018       297  POPC      H16Z           60.7878782021       32.7134989815       -2.4763053227  MEMB      297             0.0000000000
     36019       298  POPC      N             -47.3476379747       45.9279456903      -20.9296884863  MEMB      298             0.0000000000
     36020       298  POPC      C12           -48.4468456819       46.2012328425      -19.8731100641  MEMB      298             0.0000000000
     36021       298  POPC      H12A          -48.9418801875       45.2711940411      -19.6356888497  MEMB      298             0.0000000000
     36022       298  POPC      H12B          -49.2206311970       46.8091866506      -20.3181362451  MEMB      298             0.0000000000
     36023       298  POPC      C13           -46.6319713075       47.2077412770      -21.2690169926  MEMB      298             0.0000000000
     36024       298  POPC      H13A          -45.9047345182       47.0749813655      -22.0563550286  MEMB      298             0.0000000000
     36025       298  POPC      H13B          -47.2702639103       48.0346478333      -21.5432579843  MEMB      298             0.0000000000
     36026       298  POPC      H13C          -46.1647079850       47.5059380252      -20.3421169040  MEMB      298             0.0000000000
     36027       298  POPC      C14           -46.3988291689       44.8176480087      -20.4001572545  MEMB      298             0.0000000000
     36028       298  POPC      H14A          -45.8562947251       45.1711885634      -19.5358278112  MEMB      298             0.0000000000
     36029       298  POPC      H14B          -47.0101759722       43.9868537181      -20.0801015097  MEMB      298             0.0000000000
     36030       298  POPC      H14C          -45.7551581672       44.6945517860      -21.2586063066  MEMB      298             0.0000000000
     36031       298  POPC      C15           -48.0745962313       45.5215601748      -22.1845091119  MEMB      298             0.0000000000
     36032       298  POPC      H15A          -48.4519670883       46.4189519866      -22.6521406677  MEMB      298             0.0000000000
     36033       298  POPC      H15B          -48.9204934412       44.9098621984      -21.9075914906  MEMB      298             0.0000000000
     36034       298  POPC      H15C          -47.3805526562       44.9185860531      -22.7511887752  MEMB      298             0.0000000000
     36035       298  POPC      C11           -48.1094260541       46.7768475385      -18.4239323399  MEMB      298             0.0000000000
     36036       298  POPC      H11A          -47.7945248914       45.9626397167      -17.7367468838  MEMB      298             0.0000000000
     36037       298  POPC      H11B          -49.0478439148       47.1707013777      -17.9783180061  MEMB      298             0.0000000000
     36038       298  POPC      P             -46.1465942479       48.1306914732      -17.1860943488  MEMB      298             0.0000000000
     36039       298  POPC      O13           -46.4360993618       49.5485669301      -16.7888291377  MEMB      298             0.0000000000
     36040       298  POPC      O14           -44.8173268810       47.6965124098      -17.5344432090  MEMB      298             0.0000000000
     36041       298  POPC      O12           -47.0725253635       47.7968262888      -18.4294075214  MEMB      298             0.0000000000
     36042       298  POPC      O11           -46.5964016232       47.1615762630      -15.9808115360  MEMB      298             0.0000000000
     36043       298  POPC      C1            -45.7987218294       45.9764646963      -15.8431427087  MEMB      298             0.0000000000
     36044       298  POPC      HA            -45.0139452237       46.1171373966      -15.0694128893  MEMB      298             0.0000000000
     36045       298  POPC      HB            -45.4480916521       45.6142650849      -16.8331886919  MEMB      298             0.0000000000
     36046       298  POPC      C2            -46.7649364486       44.9166870381      -15.3503937179  MEMB      298             0.0000000000
     36047       298  POPC      HS            -47.6258274794       44.9147543408      -16.0526642031  MEMB      298             0.0000000000
     36048       298  POPC      O21           -47.1723145359       45.2757816181      -13.9634665878  MEMB      298             0.0000000000
     36049       298  POPC      C21           -48.3083388532       45.9246585249      -13.7969740221  MEMB      298             0.0000000000
     36050       298  POPC      O22           -49.1220793182       46.2215988760      -14.6335634735  MEMB      298             0.0000000000
     36051       298  POPC      C22           -48.4278772085       46.3919387698      -12.3838155466  MEMB      298             0.0000000000
     36052       298  POPC      H2R           -48.1621517675       47.4657840825      -12.4866132773  MEMB      298             0.0000000000
     36053       298  POPC      H2S           -47.6123239521       45.8650236666      -11.8438578446  MEMB      298             0.0000000000
     36054       298  POPC      C3            -46.0780793097       43.5544728305      -15.3186462786  MEMB      298             0.0000000000
     36055       298  POPC      HX            -45.7999856339       43.3522570426      -16.3750996551  MEMB      298             0.0000000000
     36056       298  POPC      HY            -46.7423666406       42.7138729659      -15.0246469901  MEMB      298             0.0000000000
     36057       298  POPC      O31           -44.8705401260       43.4827280741      -14.5535706238  MEMB      298             0.0000000000
     36058       298  POPC      C31           -44.9733566295       43.1521671060      -13.2169289481  MEMB      298             0.0000000000
     36059       298  POPC      O32           -45.9368771799       42.6017720524      -12.7103979905  MEMB      298             0.0000000000
     36060       298  POPC      C32           -43.7812744047       43.7040482597      -12.4340308637  MEMB      298             0.0000000000
     36061       298  POPC      H2X           -42.8552271861       43.1931957553      -12.7743056441  MEMB      298             0.0000000000
     36062       298  POPC      H2Y           -43.8929770183       43.2850204054      -11.4111627570  MEMB      298             0.0000000000
     36063       298  POPC      C23           -49.7960193506       46.2675494577      -11.6658974596  MEMB      298             0.0000000000
     36064       298  POPC      H3R           -50.5852935156       46.9234525574      -12.0915237432  MEMB      298             0.0000000000
     36065       298  POPC      H3S           -49.7295521229       46.7582230047      -10.6713409380  MEMB      298             0.0000000000
     36066       298  POPC      C24           -50.3187071231       44.7761209208      -11.4968389532  MEMB      298             0.0000000000
     36067       298  POPC      H4R           -50.5098936315       44.3856630594      -12.5192437757  MEMB      298             0.0000000000
     36068       298  POPC      H4S           -51.2928778138       44.8009501263      -10.9632702396  MEMB      298             0.0000000000
     36069       298  POPC      C25           -49.4490312005       43.8061885483      -10.6979827797  MEMB      298             0.0000000000
     36070       298  POPC      H5R           -48.5455496340       43.5570984019      -11.2946366894  MEMB      298             0.0000000000
     36071       298  POPC      H5S           -50.0170208528       42.8514311369      -10.6858551274  MEMB      298             0.0000000000
     36072       298  POPC      C26           -49.1000868896       44.3435006328       -9.3505825683  MEMB      298             0.0000000000
     36073       298  POPC      H6R           -49.9627653536       44.8940451478       -8.9181389821  MEMB      298             0.0000000000
     36074       298  POPC      H6S           -48.3381801172       45.1519842331       -9.3637551627  MEMB      298             0.0000000000
     36075       298  POPC      C27           -48.7364382266       43.3707396574       -8.2569611043  MEMB      298             0.0000000000
     36076       298  POPC      H7R           -48.1479573196       42.5155037940       -8.6526669148  MEMB      298             0.0000000000
     36077       298  POPC      H7S           -49.6745226025       43.0694958753       -7.7435700029  MEMB      298             0.0000000000
     36078       298  POPC      C28           -47.8039341090       43.9658003606       -7.1757199902  MEMB      298             0.0000000000
     36079       298  POPC      H8R           -47.6889772296       43.1673526087       -6.4117913777  MEMB      298             0.0000000000
     36080       298  POPC      H8S           -48.3020953458       44.8378160571       -6.7005937960  MEMB      298             0.0000000000
     36081       298  POPC      C29           -46.3806950695       44.3025554872       -7.5918069349  MEMB      298             0.0000000000
     36082       298  POPC      H91           -46.3504568347       44.8221516355       -8.5608818882  MEMB      298             0.0000000000
     36083       298  POPC      C210          -45.1984633432       44.1729496306       -6.9896013386  MEMB      298             0.0000000000
     36084       298  POPC      H101          -44.2691239203       44.6559024274       -7.3258821287  MEMB      298             0.0000000000
     36085       298  POPC      C211          -45.0131705842       43.6026101338       -5.6130742406  MEMB      298             0.0000000000
     36086       298  POPC      H11R          -43.9600595560       43.7439712260       -5.2885824581  MEMB      298             0.0000000000
     36087       298  POPC      H11S          -45.3967443473       42.5599255134       -5.6140719889  MEMB      298             0.0000000000
     36088       298  POPC      C212          -45.8492880332       44.3502102067       -4.5910264562  MEMB      298             0.0000000000
     36089       298  POPC      H12R          -46.9045888031       44.2642161950       -4.9275773941  MEMB      298             0.0000000000
     36090       298  POPC      H12S          -45.5393526076       45.4154244349       -4.5311963800  MEMB      298             0.0000000000
     36091       298  POPC      C213          -45.7181910767       43.7810009568       -3.1641510478  MEMB      298             0.0000000000
     36092       298  POPC      H13R          -46.2424013967       42.8014566627       -3.1683308352  MEMB      298             0.0000000000
     36093       298  POPC      H13S          -46.3830207543       44.3099409310       -2.4482279355  MEMB      298             0.0000000000
     36094       298  POPC      C214          -44.3269053034       43.4613736164       -2.5656076462  MEMB      298             0.0000000000
     36095       298  POPC      H14R          -43.6489331837       44.2702524843       -2.9125797181  MEMB      298             0.0000000000
     36096       298  POPC      H14S          -43.8660853473       42.5555471932       -3.0144327407  MEMB      298             0.0000000000
     36097       298  POPC      C215          -44.3704946195       43.1730983914       -1.0772576782  MEMB      298             0.0000000000
     36098       298  POPC      H15R          -45.0220850019       42.3056160752       -0.8380387012  MEMB      298             0.0000000000
     36099       298  POPC      H15S          -44.7000401417       44.0959893407       -0.5538143552  MEMB      298             0.0000000000
     36100       298  POPC      C216          -43.0303339509       42.7108658287       -0.4928697848  MEMB      298             0.0000000000
     36101       298  POPC      H16R          -42.2712998940       43.4673467429       -0.7859994371  MEMB      298             0.0000000000
     36102       298  POPC      H16S          -42.7737243364       41.7026905174       -0.8828115221  MEMB      298             0.0000000000
     36103       298  POPC      C217          -43.0289416810       42.6543481189        0.9867495664  MEMB      298             0.0000000000
     36104       298  POPC      H17R          -43.8329966664       42.0129131591        1.4067234531  MEMB      298             0.0000000000
     36105       298  POPC      H17S          -43.1011564285       43.6950342442        1.3689522949  MEMB      298             0.0000000000
     36106       298  POPC      C218          -41.6736162096       42.1151376571        1.4916936644  MEMB      298             0.0000000000
     36107       298  POPC      H18R          -40.8906318376       42.8490752008        1.2043065234  MEMB      298             0.0000000000
     36108       298  POPC      H18S          -41.5154254603       41.0911038159        1.0908813370  MEMB      298             0.0000000000
     36109       298  POPC      H18T          -41.8021162661       42.1408893745        2.5949378160  MEMB      298             0.0000000000
     36110       298  POPC      C33           -43.5407177858       45.1504613479      -12.6608327419  MEMB      298             0.0000000000
     36111       298  POPC      H3X           -43.6704624953       45.4783039322      -13.7144013323  MEMB      298             0.0000000000
     36112       298  POPC      H3Y           -42.4550268067       45.3200203278      -12.4969859130  MEMB      298             0.0000000000
     36113       298  POPC      C34           -44.4318119920       46.0010665810      -11.7539183993  MEMB      298             0.0000000000
     36114       298  POPC      H4X           -44.5182973041       45.5447233829      -10.7446649308  MEMB      298             0.0000000000
     36115       298  POPC      H4Y           -45.4417292148       45.9939725084      -12.2168851805  MEMB      298             0.0000000000
     36116       298  POPC      C35           -43.9666550513       47.4865670665      -11.5513627132  MEMB      298             0.0000000000
     36117       298  POPC      H5X           -43.9575804764       47.9222503761      -12.5733306232  MEMB      298             0.0000000000
     36118       298  POPC      H5Y           -42.8854617344       47.4446047885      -11.2992093648  MEMB      298             0.0000000000
     36119       298  POPC      C36           -44.7278655435       48.2878552996      -10.4522903763  MEMB      298             0.0000000000
     36120       298  POPC      H6X           -44.4084305955       49.3496707860      -10.5217908562  MEMB      298             0.0000000000
     36121       298  POPC      H6Y           -44.1380785223       48.0380950677       -9.5444952928  MEMB      298             0.0000000000
     36122       298  POPC      C37           -46.3304763240       48.0072164197      -10.2927816239  MEMB      298             0.0000000000
     36123       298  POPC      H7X           -46.4661954493       46.9167709534      -10.1289843890  MEMB      298             0.0000000000
     36124       298  POPC      H7Y           -46.7886259804       48.3464705607      -11.2463683541  MEMB      298             0.0000000000
     36125       298  POPC      C38           -46.9291893269       48.6517857614       -9.0855599212  MEMB      298             0.0000000000
     36126       298  POPC      H8X           -48.0249937353       48.4973217007       -9.1839206792  MEMB      298             0.0000000000
     36127       298  POPC      H8Y           -46.8480036064       49.7575467071       -9.0146892942  MEMB      298             0.0000000000
     36128       298  POPC      C39           -46.4211374192       48.1675065485       -7.6888832108  MEMB      298             0.0000000000
     36129       298  POPC      H9X           -45.3953607284       48.5809992866       -7.5833991744  MEMB      298             0.0000000000
     36130       298  POPC      H9Y           -46.3590452515       47.0594738027       -7.7411245758  MEMB      298             0.0000000000
     36131       298  POPC      C310          -47.3797723289       48.6127582339       -6.5347957223  MEMB      298             0.0000000000
     36132       298  POPC      H10X          -48.2763246663       48.0001885456       -6.7698989066  MEMB      298             0.0000000000
     36133       298  POPC      H10Y          -47.6098151552       49.6975681141       -6.6025368412  MEMB      298             0.0000000000
     36134       298  POPC      C311          -46.9585875590       48.3378068560       -5.0845372653  MEMB      298             0.0000000000
     36135       298  POPC      H11X          -45.9987568363       48.8341505556       -4.8262949627  MEMB      298             0.0000000000
     36136       298  POPC      H11Y          -46.8671222647       47.2334092615       -5.0054119708  MEMB      298             0.0000000000
     36137       298  POPC      C312          -48.0205240525       48.8778079764       -4.0593746702  MEMB      298             0.0000000000
     36138       298  POPC      H12X          -49.0408074072       48.4845728826       -4.2561206808  MEMB      298             0.0000000000
     36139       298  POPC      H12Y          -48.0900245793       49.9752036396       -4.2181638868  MEMB      298             0.0000000000
     36140       298  POPC      C313          -47.5232639501       48.5121279712       -2.6346025378  MEMB      298             0.0000000000
     36141       298  POPC      H13X          -47.3169550345       47.4204578005       -2.6384059927  MEMB      298             0.0000000000
     36142       298  POPC      H13Y          -48.2907125995       48.6977998801       -1.8530211597  MEMB      298             0.0000000000
     36143       298  POPC      C314          -46.4053384753       49.4087243701       -2.0120667866  MEMB      298             0.0000000000
     36144       298  POPC      H14X          -46.8460377453       50.4144714020       -1.8430150428  MEMB      298             0.0000000000
     36145       298  POPC      H14Y          -45.6093905103       49.5341992530       -2.7769488730  MEMB      298             0.0000000000
     36146       298  POPC      C315          -45.8625255876       48.9420121847       -0.6249157009  MEMB      298             0.0000000000
     36147       298  POPC      H15X          -46.7539664102       48.9083895717        0.0372947604  MEMB      298             0.0000000000
     36148       298  POPC      H15Y          -45.1708936797       49.7630591908       -0.3388243941  MEMB      298             0.0000000000
     36149       298  POPC      C316          -45.2387922811       47.5297423791       -0.6748893849  MEMB      298             0.0000000000
     36150       298  POPC      H16X          -44.2847940624       47.4937406852       -1.2431445221  MEMB      298             0.0000000000
     36151       298  POPC      H16Y          -45.9615234004       46.7571687871       -1.0141688347  MEMB      298             0.0000000000
     36152       298  POPC      H16Z          -44.9193270473       47.2507818165        0.3519712092  MEMB      298             0.0000000000
     36153       299  POPC      N              37.8603125081       55.6183812269      -19.2992750408  MEMB      299             0.0000000000
     36154       299  POPC      C12            38.8910327136       54.8851162365      -18.4743695039  MEMB      299             0.0000000000
     36155       299  POPC      H12A           38.3340378079       54.3167049089      -17.7442563719  MEMB      299             0.0000000000
     36156       299  POPC      H12B           39.3301299666       55.5698572569      -17.7639307204  MEMB      299             0.0000000000
     36157       299  POPC      C13            37.1186336538       54.6621363557      -20.1785525454  MEMB      299             0.0000000000
     36158       299  POPC      H13A           36.7635658112       53.8502369659      -19.5611821467  MEMB      299             0.0000000000
     36159       299  POPC      H13B           36.3724954629       55.2576090104      -20.6836169944  MEMB      299             0.0000000000
     36160       299  POPC      H13C           37.8400335223       54.3318533499      -20.9112840486  MEMB      299             0.0000000000
     36161       299  POPC      C14            36.9199119251       56.2586308653      -18.3441061436  MEMB      299             0.0000000000
     36162       299  POPC      H14A           36.2581807459       55.5195078022      -17.9172468381  MEMB      299             0.0000000000
     36163       299  POPC      H14B           37.4807135143       56.6449344277      -17.5058512991  MEMB      299             0.0000000000
     36164       299  POPC      H14C           36.4614934595       57.1180318401      -18.8106712928  MEMB      299             0.0000000000
     36165       299  POPC      C15            38.5595532277       56.7219459859      -20.0672347438  MEMB      299             0.0000000000
     36166       299  POPC      H15A           39.4840886099       56.9519397501      -19.5585726521  MEMB      299             0.0000000000
     36167       299  POPC      H15B           37.9554617824       57.6039986945      -20.2203916308  MEMB      299             0.0000000000
     36168       299  POPC      H15C           38.8818997225       56.5346954474      -21.0808570384  MEMB      299             0.0000000000
     36169       299  POPC      C11            40.0015136844       54.1009858431      -19.0887104726  MEMB      299             0.0000000000
     36170       299  POPC      H11A           40.7627285095       53.9302595047      -18.2976822983  MEMB      299             0.0000000000
     36171       299  POPC      H11B           40.4179818639       54.7088562385      -19.9201963527  MEMB      299             0.0000000000
     36172       299  POPC      P              39.1831985113       51.6674825737      -18.6686019013  MEMB      299             0.0000000000
     36173       299  POPC      O13            40.4490403392       51.5294176944      -17.8606084443  MEMB      299             0.0000000000
     36174       299  POPC      O14            38.8017052998       50.4726892856      -19.5015720083  MEMB      299             0.0000000000
     36175       299  POPC      O12            39.3999790457       52.9512462907      -19.6638701455  MEMB      299             0.0000000000
     36176       299  POPC      O11            37.9399213883       52.1670837421      -17.8530990470  MEMB      299             0.0000000000
     36177       299  POPC      C1             37.2420122126       51.1366502376      -17.0861161910  MEMB      299             0.0000000000
     36178       299  POPC      HA             37.4616148902       50.1500754214      -17.5473816071  MEMB      299             0.0000000000
     36179       299  POPC      HB             36.1625387438       51.3640533191      -17.2178200925  MEMB      299             0.0000000000
     36180       299  POPC      C2             37.5970072658       51.2272481874      -15.5650114012  MEMB      299             0.0000000000
     36181       299  POPC      HS             36.8350106751       50.6550432707      -14.9938165929  MEMB      299             0.0000000000
     36182       299  POPC      O21            37.7393209857       52.6218716788      -15.1548632175  MEMB      299             0.0000000000
     36183       299  POPC      C21            36.7696213734       53.2164230057      -14.3996428768  MEMB      299             0.0000000000
     36184       299  POPC      O22            35.6482828701       52.8511384763      -14.1350762957  MEMB      299             0.0000000000
     36185       299  POPC      C22            37.3534780465       54.5772068295      -13.8417405038  MEMB      299             0.0000000000
     36186       299  POPC      H2R            37.4542946492       55.2112496273      -14.7484639641  MEMB      299             0.0000000000
     36187       299  POPC      H2S            38.4163544044       54.3650033503      -13.5976410177  MEMB      299             0.0000000000
     36188       299  POPC      C3             38.9632006204       50.4324308257      -15.2753325765  MEMB      299             0.0000000000
     36189       299  POPC      HX             39.8041112869       50.9524351920      -15.7820727030  MEMB      299             0.0000000000
     36190       299  POPC      HY             39.0353738185       49.4210998780      -15.7295588736  MEMB      299             0.0000000000
     36191       299  POPC      O31            39.2064367392       50.4093759993      -13.8398673239  MEMB      299             0.0000000000
     36192       299  POPC      C31            38.6449792819       49.4589802132      -13.1986015103  MEMB      299             0.0000000000
     36193       299  POPC      O32            37.9569531104       48.5146248454      -13.6481678640  MEMB      299             0.0000000000
     36194       299  POPC      C32            38.6889203011       49.8400770862      -11.7088825240  MEMB      299             0.0000000000
     36195       299  POPC      H2X            38.7336755239       50.9477284309      -11.6352182901  MEMB      299             0.0000000000
     36196       299  POPC      H2Y            39.6881067048       49.4891182823      -11.3730622760  MEMB      299             0.0000000000
     36197       299  POPC      C23            36.5912250838       55.1475663791      -12.6902302920  MEMB      299             0.0000000000
     36198       299  POPC      H3R            35.5087719522       54.8991938184      -12.7206820968  MEMB      299             0.0000000000
     36199       299  POPC      H3S            36.5602090259       56.2573338846      -12.7323600857  MEMB      299             0.0000000000
     36200       299  POPC      C24            37.2486117961       54.8259193443      -11.3355323522  MEMB      299             0.0000000000
     36201       299  POPC      H4R            38.3593156111       54.8223333054      -11.3609315088  MEMB      299             0.0000000000
     36202       299  POPC      H4S            36.9466079124       53.7838145458      -11.0965088536  MEMB      299             0.0000000000
     36203       299  POPC      C25            36.8336649739       55.7051783740      -10.2027176378  MEMB      299             0.0000000000
     36204       299  POPC      H5R            36.8834009276       56.7589659872      -10.5511129226  MEMB      299             0.0000000000
     36205       299  POPC      H5S            37.5743860509       55.5289589918       -9.3936442527  MEMB      299             0.0000000000
     36206       299  POPC      C26            35.4110121028       55.5346683662       -9.6350050984  MEMB      299             0.0000000000
     36207       299  POPC      H6R            34.7007512168       55.8926821493      -10.4106833842  MEMB      299             0.0000000000
     36208       299  POPC      H6S            35.2314735995       56.2180952461       -8.7776756877  MEMB      299             0.0000000000
     36209       299  POPC      C27            34.9712997364       54.0988151282       -9.3256457466  MEMB      299             0.0000000000
     36210       299  POPC      H7R            35.2807700696       53.3969939019      -10.1293844662  MEMB      299             0.0000000000
     36211       299  POPC      H7S            33.8762917037       54.0990362211       -9.1378216711  MEMB      299             0.0000000000
     36212       299  POPC      C28            35.7613674085       53.4930381877       -8.0776093514  MEMB      299             0.0000000000
     36213       299  POPC      H8R            35.9079065252       54.3181749110       -7.3482284446  MEMB      299             0.0000000000
     36214       299  POPC      H8S            36.7973893093       53.2439574495       -8.3921539751  MEMB      299             0.0000000000
     36215       299  POPC      C29            35.0375015656       52.2555033310       -7.5635481276  MEMB      299             0.0000000000
     36216       299  POPC      H91            34.9454431286       51.3322214828       -8.1543738341  MEMB      299             0.0000000000
     36217       299  POPC      C210           34.4127861069       52.1020974823       -6.4090801957  MEMB      299             0.0000000000
     36218       299  POPC      H101           34.1870178258       51.0545085622       -6.1609150040  MEMB      299             0.0000000000
     36219       299  POPC      C211           34.2617048093       53.1704393006       -5.2979783413  MEMB      299             0.0000000000
     36220       299  POPC      H11R           33.1613569158       53.2643339396       -5.1765712856  MEMB      299             0.0000000000
     36221       299  POPC      H11S           34.8226734792       54.0813859476       -5.5976628832  MEMB      299             0.0000000000
     36222       299  POPC      C212           34.9183356622       52.6461122369       -3.9743173085  MEMB      299             0.0000000000
     36223       299  POPC      H12R           34.3868005979       51.7605435566       -3.5649774708  MEMB      299             0.0000000000
     36224       299  POPC      H12S           34.7922109281       53.4782818379       -3.2491227547  MEMB      299             0.0000000000
     36225       299  POPC      C213           36.3615135458       52.2200067036       -4.0052074255  MEMB      299             0.0000000000
     36226       299  POPC      H13R           37.1139694360       52.9132447361       -4.4382806323  MEMB      299             0.0000000000
     36227       299  POPC      H13S           36.4523624991       51.2866288190       -4.6009196958  MEMB      299             0.0000000000
     36228       299  POPC      C214           36.9507721293       51.8915388205       -2.5464171314  MEMB      299             0.0000000000
     36229       299  POPC      H14R           38.0614399157       51.9047413026       -2.5226740325  MEMB      299             0.0000000000
     36230       299  POPC      H14S           36.6601124553       50.8952246021       -2.1499382984  MEMB      299             0.0000000000
     36231       299  POPC      C215           36.6563130990       52.9981111157       -1.4740940663  MEMB      299             0.0000000000
     36232       299  POPC      H15R           35.6125479187       52.9763768235       -1.0940902556  MEMB      299             0.0000000000
     36233       299  POPC      H15S           36.9632417004       53.9167817555       -2.0183000776  MEMB      299             0.0000000000
     36234       299  POPC      C216           37.5881742240       52.9795607166       -0.1831651276  MEMB      299             0.0000000000
     36235       299  POPC      H16R           37.0676167084       53.6542041253        0.5297133452  MEMB      299             0.0000000000
     36236       299  POPC      H16S           38.6432437054       53.2867889422       -0.3467518662  MEMB      299             0.0000000000
     36237       299  POPC      C217           37.5790027021       51.6456427027        0.6338516919  MEMB      299             0.0000000000
     36238       299  POPC      H17R           38.2651206537       51.7614145445        1.4999704366  MEMB      299             0.0000000000
     36239       299  POPC      H17S           37.9771090686       50.9210921158       -0.1083465565  MEMB      299             0.0000000000
     36240       299  POPC      C218           36.2490161486       51.1746410670        1.1450289474  MEMB      299             0.0000000000
     36241       299  POPC      H18R           36.3037080793       50.1382231424        1.5414729859  MEMB      299             0.0000000000
     36242       299  POPC      H18S           35.7040661654       51.0959139053        0.1800675940  MEMB      299             0.0000000000
     36243       299  POPC      H18T           35.7292330780       51.9035595844        1.8029228613  MEMB      299             0.0000000000
     36244       299  POPC      C33            37.6931419067       49.2879704718      -10.7084281728  MEMB      299             0.0000000000
     36245       299  POPC      H3X            37.4666861927       48.2288940386      -10.9562099729  MEMB      299             0.0000000000
     36246       299  POPC      H3Y            36.7130882264       49.7899550612      -10.8561688114  MEMB      299             0.0000000000
     36247       299  POPC      C34            38.3750353598       49.3735793692       -9.3256534904  MEMB      299             0.0000000000
     36248       299  POPC      H4X            39.2637295521       48.7138202774       -9.2294162244  MEMB      299             0.0000000000
     36249       299  POPC      H4Y            37.6535998867       49.0051678685       -8.5653076153  MEMB      299             0.0000000000
     36250       299  POPC      C35            38.8739216250       50.7884184060       -8.9242219242  MEMB      299             0.0000000000
     36251       299  POPC      H5X            38.1169705790       51.5568151317       -9.1905162940  MEMB      299             0.0000000000
     36252       299  POPC      H5Y            39.6246402238       51.2002247119       -9.6321474633  MEMB      299             0.0000000000
     36253       299  POPC      C36            39.1893543018       51.1288183446       -7.4489317249  MEMB      299             0.0000000000
     36254       299  POPC      H6X            38.3065887610       50.8062767777       -6.8564678291  MEMB      299             0.0000000000
     36255       299  POPC      H6Y            39.3912409277       52.2083559116       -7.2811179334  MEMB      299             0.0000000000
     36256       299  POPC      C37            40.2968584694       50.2679957254       -6.8996233384  MEMB      299             0.0000000000
     36257       299  POPC      H7X            41.3045975156       50.5580866260       -7.2665429524  MEMB      299             0.0000000000
     36258       299  POPC      H7Y            40.0975412213       49.1896125262       -7.0776203658  MEMB      299             0.0000000000
     36259       299  POPC      C38            40.4914587970       50.3814115215       -5.2853509727  MEMB      299             0.0000000000
     36260       299  POPC      H8X            41.3579065546       49.7873255676       -4.9238938574  MEMB      299             0.0000000000
     36261       299  POPC      H8Y            39.5135802450       50.0540601038       -4.8719308886  MEMB      299             0.0000000000
     36262       299  POPC      C39            40.9207042426       51.7615187938       -4.7936939996  MEMB      299             0.0000000000
     36263       299  POPC      H9X            39.9850899811       52.3490902566       -4.9107700146  MEMB      299             0.0000000000
     36264       299  POPC      H9Y            41.7926442292       52.1878817814       -5.3343003645  MEMB      299             0.0000000000
     36265       299  POPC      C310           41.4203692311       51.8059205751       -3.3656189979  MEMB      299             0.0000000000
     36266       299  POPC      H10X           42.5162349344       51.6741083270       -3.2390284641  MEMB      299             0.0000000000
     36267       299  POPC      H10Y           40.8175894574       51.0845531048       -2.7734986350  MEMB      299             0.0000000000
     36268       299  POPC      C311           41.0094640854       53.1464719937       -2.6241161175  MEMB      299             0.0000000000
     36269       299  POPC      H11X           39.9476711720       53.0792257637       -2.3041248702  MEMB      299             0.0000000000
     36270       299  POPC      H11Y           41.2786382440       54.0345790633       -3.2349627208  MEMB      299             0.0000000000
     36271       299  POPC      C312           41.7264066400       53.1984305547       -1.2325109279  MEMB      299             0.0000000000
     36272       299  POPC      H12X           42.8296161851       53.1042886069       -1.3240905313  MEMB      299             0.0000000000
     36273       299  POPC      H12Y           41.4648555363       52.2439810879       -0.7275955603  MEMB      299             0.0000000000
     36274       299  POPC      C313           41.3618292420       54.3339556726       -0.2049954439  MEMB      299             0.0000000000
     36275       299  POPC      H13X           40.3053615056       54.6766382674       -0.2326625235  MEMB      299             0.0000000000
     36276       299  POPC      H13Y           41.9807235904       55.2412796169       -0.3724869282  MEMB      299             0.0000000000
     36277       299  POPC      C314           41.5484809745       53.8693470512        1.2780275477  MEMB      299             0.0000000000
     36278       299  POPC      H14X           42.5773909153       53.5163723530        1.5040234472  MEMB      299             0.0000000000
     36279       299  POPC      H14Y           41.0411122697       52.9156434320        1.5375394095  MEMB      299             0.0000000000
     36280       299  POPC      C315           41.1243677697       54.8773200845        2.3500079977  MEMB      299             0.0000000000
     36281       299  POPC      H15X           41.6951496513       55.8253266894        2.2509509469  MEMB      299             0.0000000000
     36282       299  POPC      H15Y           41.4045374957       54.3481751597        3.2858668140  MEMB      299             0.0000000000
     36283       299  POPC      C316           39.6540124733       55.2081003306        2.3748160912  MEMB      299             0.0000000000
     36284       299  POPC      H16X           39.5143511949       55.8520315774        3.2693384189  MEMB      299             0.0000000000
     36285       299  POPC      H16Y           39.0116450476       54.3297675060        2.5989072198  MEMB      299             0.0000000000
     36286       299  POPC      H16Z           39.2880732873       55.7488170805        1.4759077132  MEMB      299             0.0000000000
     36287       300  POPC      N              54.3935538617      -36.7737159785      -20.8997750393  MEMB      300             0.0000000000
     36288       300  POPC      C12            54.0218315808      -36.7361016464      -19.4301981566  MEMB      300             0.0000000000
     36289       300  POPC      H12A           52.9692925774      -36.5193370844      -19.3226118922  MEMB      300             0.0000000000
     36290       300  POPC      H12B           54.6745061009      -35.9635220589      -19.0513357933  MEMB      300             0.0000000000
     36291       300  POPC      C13            55.8564523383      -36.8826669894      -21.0349326340  MEMB      300             0.0000000000
     36292       300  POPC      H13A           56.1407199155      -37.8848504584      -20.7499410261  MEMB      300             0.0000000000
     36293       300  POPC      H13B           56.2679910565      -36.5651356777      -21.9816161836  MEMB      300             0.0000000000
     36294       300  POPC      H13C           56.3806974699      -36.1391829416      -20.4528685073  MEMB      300             0.0000000000
     36295       300  POPC      C14            53.5483519243      -37.8191992284      -21.6188601515  MEMB      300             0.0000000000
     36296       300  POPC      H14A           53.8025112235      -38.7756440729      -21.1864062344  MEMB      300             0.0000000000
     36297       300  POPC      H14B           52.5033571668      -37.6658746477      -21.3932996161  MEMB      300             0.0000000000
     36298       300  POPC      H14C           53.4993657888      -37.7218493005      -22.6933476358  MEMB      300             0.0000000000
     36299       300  POPC      C15            54.1013647058      -35.3633690333      -21.4740071474  MEMB      300             0.0000000000
     36300       300  POPC      H15A           54.7826094542      -34.6046412097      -21.1181451160  MEMB      300             0.0000000000
     36301       300  POPC      H15B           53.0839930270      -35.1710837564      -21.1667919649  MEMB      300             0.0000000000
     36302       300  POPC      H15C           54.2438943628      -35.4461353060      -22.5413566847  MEMB      300             0.0000000000
     36303       300  POPC      C11            54.2507610647      -38.0424083498      -18.6616073118  MEMB      300             0.0000000000
     36304       300  POPC      H11A           53.6837167140      -38.8825944575      -19.1164358721  MEMB      300             0.0000000000
     36305       300  POPC      H11B           53.8192657138      -37.8412499283      -17.6577806383  MEMB      300             0.0000000000
     36306       300  POPC      P              56.1689376530      -38.9217877888      -17.1785789091  MEMB      300             0.0000000000
     36307       300  POPC      O13            57.6356397389      -39.2651507980      -17.2574079759  MEMB      300             0.0000000000
     36308       300  POPC      O14            55.2862355989      -39.9369228361      -16.5784435491  MEMB      300             0.0000000000
     36309       300  POPC      O12            55.6723662660      -38.3644316541      -18.5772475398  MEMB      300             0.0000000000
     36310       300  POPC      O11            56.0401965652      -37.6309659970      -16.2889415889  MEMB      300             0.0000000000
     36311       300  POPC      C1             56.7235241159      -36.4118333525      -16.6056458003  MEMB      300             0.0000000000
     36312       300  POPC      HA             56.4961014080      -36.1128433102      -17.6512100977  MEMB      300             0.0000000000
     36313       300  POPC      HB             57.8134788388      -36.6264332838      -16.5893240578  MEMB      300             0.0000000000
     36314       300  POPC      C2             56.2096770928      -35.2287335435      -15.6730142541  MEMB      300             0.0000000000
     36315       300  POPC      HS             56.6922525315      -34.3176663580      -16.0870172656  MEMB      300             0.0000000000
     36316       300  POPC      O21            56.3826910205      -35.5470594139      -14.3367968282  MEMB      300             0.0000000000
     36317       300  POPC      C21            57.5764784735      -35.4602182984      -13.7095760979  MEMB      300             0.0000000000
     36318       300  POPC      O22            58.6125144260      -35.1269526914      -14.2228230738  MEMB      300             0.0000000000
     36319       300  POPC      C22            57.4006953788      -36.0184430901      -12.2851101909  MEMB      300             0.0000000000
     36320       300  POPC      H2R            56.4502973091      -35.6218597057      -11.8682339626  MEMB      300             0.0000000000
     36321       300  POPC      H2S            58.1753486098      -35.5611549715      -11.6330972398  MEMB      300             0.0000000000
     36322       300  POPC      C3             54.6812450453      -34.9076401774      -15.8746716170  MEMB      300             0.0000000000
     36323       300  POPC      HX             54.5411681656      -34.5579043469      -16.9198435830  MEMB      300             0.0000000000
     36324       300  POPC      HY             54.3357341161      -34.0716929120      -15.2295862429  MEMB      300             0.0000000000
     36325       300  POPC      O31            53.7472878613      -35.9264559574      -15.4894403601  MEMB      300             0.0000000000
     36326       300  POPC      C31            52.4750405812      -35.7570703067      -15.8654647007  MEMB      300             0.0000000000
     36327       300  POPC      O32            52.0828752977      -34.7888854627      -16.4724917067  MEMB      300             0.0000000000
     36328       300  POPC      C32            51.5298912780      -36.9668617645      -15.3518429176  MEMB      300             0.0000000000
     36329       300  POPC      H2X            52.0647383755      -37.8991538207      -15.0706111991  MEMB      300             0.0000000000
     36330       300  POPC      H2Y            50.8659126844      -37.1388531874      -16.2258406884  MEMB      300             0.0000000000
     36331       300  POPC      C23            57.4568905250      -37.5410796495      -12.1710314922  MEMB      300             0.0000000000
     36332       300  POPC      H3R            57.6701597662      -37.9113517556      -11.1454896639  MEMB      300             0.0000000000
     36333       300  POPC      H3S            58.4263094582      -37.8494146812      -12.6176603572  MEMB      300             0.0000000000
     36334       300  POPC      C24            56.2480135465      -38.3214621065      -12.7952081085  MEMB      300             0.0000000000
     36335       300  POPC      H4R            56.1240958180      -38.1418374432      -13.8845658450  MEMB      300             0.0000000000
     36336       300  POPC      H4S            55.3559412206      -37.8958749119      -12.2878587595  MEMB      300             0.0000000000
     36337       300  POPC      C25            56.2032808745      -39.8342156857      -12.4619949419  MEMB      300             0.0000000000
     36338       300  POPC      H5R            56.2945532835      -39.9166488452      -11.3578229915  MEMB      300             0.0000000000
     36339       300  POPC      H5S            57.0357452793      -40.4135797437      -12.9154936278  MEMB      300             0.0000000000
     36340       300  POPC      C26            54.9677297299      -40.4575967587      -13.0220426403  MEMB      300             0.0000000000
     36341       300  POPC      H6R            55.0857163132      -41.5529061653      -12.8781772632  MEMB      300             0.0000000000
     36342       300  POPC      H6S            54.9465304877      -40.3269423891      -14.1251297490  MEMB      300             0.0000000000
     36343       300  POPC      C27            53.5708197772      -39.9942588919      -12.4260448911  MEMB      300             0.0000000000
     36344       300  POPC      H7R            52.8245840805      -40.5733127747      -13.0109806664  MEMB      300             0.0000000000
     36345       300  POPC      H7S            53.5250254108      -38.9108606907      -12.6678552654  MEMB      300             0.0000000000
     36346       300  POPC      C28            53.3408345913      -40.2788604484      -10.9805034434  MEMB      300             0.0000000000
     36347       300  POPC      H8R            54.1176557712      -39.7605233449      -10.3786764815  MEMB      300             0.0000000000
     36348       300  POPC      H8S            53.3967340276      -41.3678097649      -10.7674634711  MEMB      300             0.0000000000
     36349       300  POPC      C29            52.0013871866      -39.6593954005      -10.4807130866  MEMB      300             0.0000000000
     36350       300  POPC      H91            51.3939554465      -39.1201800168      -11.2225173717  MEMB      300             0.0000000000
     36351       300  POPC      C210           51.5382632399      -39.5856507576       -9.2447053294  MEMB      300             0.0000000000
     36352       300  POPC      H101           50.5577171263      -39.1034552358       -9.1181470962  MEMB      300             0.0000000000
     36353       300  POPC      C211           52.0803912542      -40.1702966525       -7.9320937971  MEMB      300             0.0000000000
     36354       300  POPC      H11R           52.8244322030      -40.9661456731       -8.1496897345  MEMB      300             0.0000000000
     36355       300  POPC      H11S           51.2999652118      -40.7186698532       -7.3624074300  MEMB      300             0.0000000000
     36356       300  POPC      C212           52.5615378821      -39.1106608713       -6.9796625695  MEMB      300             0.0000000000
     36357       300  POPC      H12R           51.6415439853      -38.5510984360       -6.7061266154  MEMB      300             0.0000000000
     36358       300  POPC      H12S           53.2883174298      -38.4297422403       -7.4720673019  MEMB      300             0.0000000000
     36359       300  POPC      C213           53.0830481709      -39.7706575683       -5.7428984153  MEMB      300             0.0000000000
     36360       300  POPC      H13R           54.0115648566      -40.2925589488       -6.0588049748  MEMB      300             0.0000000000
     36361       300  POPC      H13S           52.3609757793      -40.5186153498       -5.3511190701  MEMB      300             0.0000000000
     36362       300  POPC      C214           53.5545403899      -38.7909152214       -4.6709299520  MEMB      300             0.0000000000
     36363       300  POPC      H14R           54.2278154066      -38.0689802691       -5.1806663001  MEMB      300             0.0000000000
     36364       300  POPC      H14S           54.1188319539      -39.3069987601       -3.8649803834  MEMB      300             0.0000000000
     36365       300  POPC      C215           52.5087513794      -37.9122031783       -4.0398896642  MEMB      300             0.0000000000
     36366       300  POPC      H15R           51.6832645622      -38.5566824915       -3.6690274866  MEMB      300             0.0000000000
     36367       300  POPC      H15S           52.1973966242      -37.1341577171       -4.7692897959  MEMB      300             0.0000000000
     36368       300  POPC      C216           52.9392172534      -37.2056457794       -2.7398891306  MEMB      300             0.0000000000
     36369       300  POPC      H16R           53.1192441638      -38.0312908898       -2.0186262837  MEMB      300             0.0000000000
     36370       300  POPC      H16S           52.0543973203      -36.6233813837       -2.4046535980  MEMB      300             0.0000000000
     36371       300  POPC      C217           54.2215066393      -36.3223287250       -2.8240816476  MEMB      300             0.0000000000
     36372       300  POPC      H17R           54.0719302154      -35.7714771997       -3.7772398185  MEMB      300             0.0000000000
     36373       300  POPC      H17S           55.0813890680      -37.0250287660       -2.8577826224  MEMB      300             0.0000000000
     36374       300  POPC      C218           54.5461222305      -35.4689751509       -1.5797223351  MEMB      300             0.0000000000
     36375       300  POPC      H18R           55.3573510754      -34.7445624612       -1.8065589486  MEMB      300             0.0000000000
     36376       300  POPC      H18S           54.7778768495      -36.0922296092       -0.6896858504  MEMB      300             0.0000000000
     36377       300  POPC      H18T           53.6482679074      -34.8294686185       -1.4411236143  MEMB      300             0.0000000000
     36378       300  POPC      C33            50.7192385598      -36.5293543631      -14.1308884635  MEMB      300             0.0000000000
     36379       300  POPC      H3X            49.9475635706      -37.3108702297      -13.9633425228  MEMB      300             0.0000000000
     36380       300  POPC      H3Y            50.0747603484      -35.6396864170      -14.2965981194  MEMB      300             0.0000000000
     36381       300  POPC      C34            51.5988398257      -36.4500035926      -12.8664733770  MEMB      300             0.0000000000
     36382       300  POPC      H4X            52.6281222093      -36.7740548957      -13.1308395543  MEMB      300             0.0000000000
     36383       300  POPC      H4Y            51.1640769549      -37.2357322278      -12.2123076859  MEMB      300             0.0000000000
     36384       300  POPC      C35            51.6956758650      -35.0507621378      -12.3424822282  MEMB      300             0.0000000000
     36385       300  POPC      H5X            50.7192390795      -34.5226724838      -12.3873538881  MEMB      300             0.0000000000
     36386       300  POPC      H5Y            52.3690104385      -34.5659727990      -13.0813467560  MEMB      300             0.0000000000
     36387       300  POPC      C36            52.2491105744      -34.9944280925      -10.9253496350  MEMB      300             0.0000000000
     36388       300  POPC      H6X            51.4364996645      -35.3852166392      -10.2762974830  MEMB      300             0.0000000000
     36389       300  POPC      H6Y            52.4959331842      -33.9422134760      -10.6679700396  MEMB      300             0.0000000000
     36390       300  POPC      C37            53.5612241656      -35.8100725714      -10.6530347017  MEMB      300             0.0000000000
     36391       300  POPC      H7X            54.2345027238      -35.3057216517      -11.3787391218  MEMB      300             0.0000000000
     36392       300  POPC      H7Y            53.4956864457      -36.8854634515      -10.9242545803  MEMB      300             0.0000000000
     36393       300  POPC      C38            54.0645449866      -35.6800725377       -9.1903273455  MEMB      300             0.0000000000
     36394       300  POPC      H8X            53.4495234290      -36.3698134540       -8.5736210702  MEMB      300             0.0000000000
     36395       300  POPC      H8Y            53.9268185518      -34.6319836072       -8.8484772733  MEMB      300             0.0000000000
     36396       300  POPC      C39            55.5237246714      -36.3389197500       -9.0792681907  MEMB      300             0.0000000000
     36397       300  POPC      H9X            56.1405334023      -35.7177799624       -9.7634125538  MEMB      300             0.0000000000
     36398       300  POPC      H9Y            55.4155852722      -37.3473038908       -9.5329069562  MEMB      300             0.0000000000
     36399       300  POPC      C310           56.0579965689      -36.4224485573       -7.6748199460  MEMB      300             0.0000000000
     36400       300  POPC      H10X           55.4483458890      -37.1307852318       -7.0740647047  MEMB      300             0.0000000000
     36401       300  POPC      H10Y           55.8038825439      -35.4387480102       -7.2252860322  MEMB      300             0.0000000000
     36402       300  POPC      C311           57.5724246203      -36.7412992610       -7.5561641143  MEMB      300             0.0000000000
     36403       300  POPC      H11X           58.0519333710      -36.6562714362       -6.5575837524  MEMB      300             0.0000000000
     36404       300  POPC      H11Y           58.1534990960      -36.1393124373       -8.2871122484  MEMB      300             0.0000000000
     36405       300  POPC      C312           57.8995185948      -38.2294229859       -7.8503384943  MEMB      300             0.0000000000
     36406       300  POPC      H12X           58.9712931787      -38.4703747298       -7.6843200366  MEMB      300             0.0000000000
     36407       300  POPC      H12Y           57.8074805468      -38.3933756981       -8.9453137237  MEMB      300             0.0000000000
     36408       300  POPC      C313           57.1660256471      -39.2397618778       -6.9182280684  MEMB      300             0.0000000000
     36409       300  POPC      H13X           57.4283847982      -40.2659707674       -7.2534647717  MEMB      300             0.0000000000
     36410       300  POPC      H13Y           56.0607898769      -39.1587838544       -6.9970795502  MEMB      300             0.0000000000
     36411       300  POPC      C314           57.4494355039      -39.1685403736       -5.4345996135  MEMB      300             0.0000000000
     36412       300  POPC      H14X           56.8499038901      -38.3067565271       -5.0709909410  MEMB      300             0.0000000000
     36413       300  POPC      H14Y           58.5453515200      -38.9880181839       -5.4610756602  MEMB      300             0.0000000000
     36414       300  POPC      C315           57.1690484881      -40.4203845865       -4.5475682545  MEMB      300             0.0000000000
     36415       300  POPC      H15X           58.0050962168      -41.1470962624       -4.6326271306  MEMB      300             0.0000000000
     36416       300  POPC      H15Y           56.2301916205      -40.8849441619       -4.9177754143  MEMB      300             0.0000000000
     36417       300  POPC      C316           57.1249755379      -40.1265948087       -3.0455610779  MEMB      300             0.0000000000
     36418       300  POPC      H16X           57.8808806449      -39.3579943507       -2.7768944331  MEMB      300             0.0000000000
     36419       300  POPC      H16Y           57.3975502428      -41.0337063626       -2.4648958038  MEMB      300             0.0000000000
     36420       300  POPC      H16Z           56.1060692626      -39.8085712725       -2.7373209239  MEMB      300             0.0000000000
     36421       301  POPC      N              37.2499339847      -53.4989869880      -20.3370973336  MEMB      301             0.0000000000
     36422       301  POPC      C12            37.8092764683      -54.8783460359      -20.5753367843  MEMB      301             0.0000000000
     36423       301  POPC      H12A           38.8333353641      -54.7513617082      -20.8940506885  MEMB      301             0.0000000000
     36424       301  POPC      H12B           37.2412631982      -55.3148617024      -21.3835538739  MEMB      301             0.0000000000
     36425       301  POPC      C13            37.9145248796      -52.9505763057      -19.1130515315  MEMB      301             0.0000000000
     36426       301  POPC      H13A           38.9885042849      -53.0400707921      -19.1834722939  MEMB      301             0.0000000000
     36427       301  POPC      H13B           37.6760244033      -51.9031514769      -19.0016127548  MEMB      301             0.0000000000
     36428       301  POPC      H13C           37.6428803250      -53.5492177700      -18.2561747967  MEMB      301             0.0000000000
     36429       301  POPC      C14            37.6829843061      -52.5546173498      -21.4473901372  MEMB      301             0.0000000000
     36430       301  POPC      H14A           36.9799901000      -52.6436672550      -22.2624172097  MEMB      301             0.0000000000
     36431       301  POPC      H14B           37.4715715650      -51.5144364201      -21.2480702655  MEMB      301             0.0000000000
     36432       301  POPC      H14C           38.6312593194      -52.8617408072      -21.8631422818  MEMB      301             0.0000000000
     36433       301  POPC      C15            35.7317387481      -53.4701479189      -20.1886673312  MEMB      301             0.0000000000
     36434       301  POPC      H15A           35.5218700925      -54.2946763878      -19.5234545344  MEMB      301             0.0000000000
     36435       301  POPC      H15B           35.2431604396      -53.7268468771      -21.1169973789  MEMB      301             0.0000000000
     36436       301  POPC      H15C           35.4502238523      -52.5067892106      -19.7898076095  MEMB      301             0.0000000000
     36437       301  POPC      C11            37.7550117891      -55.8365616642      -19.3481498057  MEMB      301             0.0000000000
     36438       301  POPC      H11A           38.5708928910      -55.5271292286      -18.6604647915  MEMB      301             0.0000000000
     36439       301  POPC      H11B           38.0047218553      -56.7936948378      -19.8539778383  MEMB      301             0.0000000000
     36440       301  POPC      P              36.0967371965      -56.7665398882      -17.6145423639  MEMB      301             0.0000000000
     36441       301  POPC      O13            35.9848944883      -58.1489140015      -18.0527820733  MEMB      301             0.0000000000
     36442       301  POPC      O14            34.8742705682      -56.2126468654      -16.9625982583  MEMB      301             0.0000000000
     36443       301  POPC      O12            36.4652482206      -55.8779944214      -18.8115645454  MEMB      301             0.0000000000
     36444       301  POPC      O11            37.2770770107      -56.5527071540      -16.5488198371  MEMB      301             0.0000000000
     36445       301  POPC      C1             38.3812759758      -57.4254370595      -16.4286432604  MEMB      301             0.0000000000
     36446       301  POPC      HA             38.9750234705      -57.4482713958      -17.3673997752  MEMB      301             0.0000000000
     36447       301  POPC      HB             38.1170879498      -58.4809550064      -16.2041269863  MEMB      301             0.0000000000
     36448       301  POPC      C2             39.2904847520      -56.8595252735      -15.3631011803  MEMB      301             0.0000000000
     36449       301  POPC      HS             40.0917795203      -57.6142549094      -15.2126658206  MEMB      301             0.0000000000
     36450       301  POPC      O21            38.5857898205      -56.5442985553      -14.1109950028  MEMB      301             0.0000000000
     36451       301  POPC      C21            38.1786592382      -57.6092988986      -13.4697358008  MEMB      301             0.0000000000
     36452       301  POPC      O22            38.4190757822      -58.7812855858      -13.8186973742  MEMB      301             0.0000000000
     36453       301  POPC      C22            37.3113003528      -57.3010242456      -12.1455192535  MEMB      301             0.0000000000
     36454       301  POPC      H2R            37.4349730755      -58.1145539711      -11.3990640572  MEMB      301             0.0000000000
     36455       301  POPC      H2S            36.2798003428      -57.3161611081      -12.5579505445  MEMB      301             0.0000000000
     36456       301  POPC      C3             39.8958528328      -55.5379877110      -15.9092981153  MEMB      301             0.0000000000
     36457       301  POPC      HX             40.1802722153      -55.6611668049      -16.9761878381  MEMB      301             0.0000000000
     36458       301  POPC      HY             40.7984777051      -55.2705596719      -15.3193223839  MEMB      301             0.0000000000
     36459       301  POPC      O31            39.0067891206      -54.4767106940      -16.0221473098  MEMB      301             0.0000000000
     36460       301  POPC      C31            38.8283807968      -53.7278704493      -14.9552690781  MEMB      301             0.0000000000
     36461       301  POPC      O32            39.5035040196      -53.7592688824      -13.9052049154  MEMB      301             0.0000000000
     36462       301  POPC      C32            37.7147694719      -52.7263928424      -15.1775543715  MEMB      301             0.0000000000
     36463       301  POPC      H2X            37.2314002936      -52.9021775248      -16.1623258562  MEMB      301             0.0000000000
     36464       301  POPC      H2Y            38.1933581450      -51.7396728400      -15.3554807315  MEMB      301             0.0000000000
     36465       301  POPC      C23            37.5275289627      -55.8518013418      -11.6757620463  MEMB      301             0.0000000000
     36466       301  POPC      H3R            36.6738783089      -55.4083431359      -11.1199326217  MEMB      301             0.0000000000
     36467       301  POPC      H3S            37.6246284592      -55.1657628815      -12.5442341374  MEMB      301             0.0000000000
     36468       301  POPC      C24            38.8658105077      -55.6752443573      -10.8246623910  MEMB      301             0.0000000000
     36469       301  POPC      H4R            39.2417683453      -54.6606295843      -11.0767212515  MEMB      301             0.0000000000
     36470       301  POPC      H4S            39.5741144228      -56.4505799046      -11.1872662311  MEMB      301             0.0000000000
     36471       301  POPC      C25            38.6440977155      -55.8183313065       -9.3210857387  MEMB      301             0.0000000000
     36472       301  POPC      H5R            38.2875360344      -56.8378341180       -9.0607037205  MEMB      301             0.0000000000
     36473       301  POPC      H5S            37.8516817079      -55.1350966349       -8.9474707760  MEMB      301             0.0000000000
     36474       301  POPC      C26            39.8041663990      -55.4675680006       -8.3335292007  MEMB      301             0.0000000000
     36475       301  POPC      H6R            39.3982773117      -55.3211364573       -7.3097453959  MEMB      301             0.0000000000
     36476       301  POPC      H6S            40.2606249966      -54.5143508923       -8.6760834172  MEMB      301             0.0000000000
     36477       301  POPC      C27            41.0436614814      -56.3239768482       -8.2500110063  MEMB      301             0.0000000000
     36478       301  POPC      H7R            41.7825678785      -55.8162592827       -7.5938396952  MEMB      301             0.0000000000
     36479       301  POPC      H7S            41.5169582161      -56.2001567870       -9.2474976823  MEMB      301             0.0000000000
     36480       301  POPC      C28            40.8788359638      -57.8360138901       -7.9792182731  MEMB      301             0.0000000000
     36481       301  POPC      H8R            41.8518026858      -58.3523978816       -8.1241483871  MEMB      301             0.0000000000
     36482       301  POPC      H8S            40.2800707732      -58.2882688506       -8.7985262210  MEMB      301             0.0000000000
     36483       301  POPC      C29            40.2315505377      -58.2695672662       -6.6791036472  MEMB      301             0.0000000000
     36484       301  POPC      H91            39.1330454637      -58.2127899712       -6.6870512239  MEMB      301             0.0000000000
     36485       301  POPC      C210           40.8241645623      -58.8516032428       -5.6890890059  MEMB      301             0.0000000000
     36486       301  POPC      H101           40.2257119435      -59.0472831386       -4.7871117714  MEMB      301             0.0000000000
     36487       301  POPC      C211           42.3011162211      -59.2448493139       -5.5495260447  MEMB      301             0.0000000000
     36488       301  POPC      H11R           42.7171866678      -59.6244213049       -6.5071957044  MEMB      301             0.0000000000
     36489       301  POPC      H11S           42.4084050747      -60.1832818029       -4.9645858397  MEMB      301             0.0000000000
     36490       301  POPC      C212           43.3608131789      -58.1623497437       -5.0769071556  MEMB      301             0.0000000000
     36491       301  POPC      H12R           43.5187341377      -57.5461204458       -5.9877540385  MEMB      301             0.0000000000
     36492       301  POPC      H12S           44.3488064152      -58.5590507879       -4.7593871665  MEMB      301             0.0000000000
     36493       301  POPC      C213           42.9141576876      -57.1858393820       -3.9985819933  MEMB      301             0.0000000000
     36494       301  POPC      H13R           42.0299532938      -56.6531976978       -4.4094304184  MEMB      301             0.0000000000
     36495       301  POPC      H13S           43.6885681360      -56.4094443004       -3.8202004603  MEMB      301             0.0000000000
     36496       301  POPC      C214           42.5318606924      -57.7942812164       -2.6596680245  MEMB      301             0.0000000000
     36497       301  POPC      H14R           43.4162901715      -58.4622822719       -2.5829810575  MEMB      301             0.0000000000
     36498       301  POPC      H14S           41.6342066043      -58.4489083666       -2.6585767550  MEMB      301             0.0000000000
     36499       301  POPC      C215           42.4540249124      -56.9839691718       -1.3862332470  MEMB      301             0.0000000000
     36500       301  POPC      H15R           43.2593764876      -56.2190194244       -1.3621026776  MEMB      301             0.0000000000
     36501       301  POPC      H15S           42.6913965349      -57.6111238748       -0.5004257120  MEMB      301             0.0000000000
     36502       301  POPC      C216           41.1445981460      -56.1493062797       -1.1775913366  MEMB      301             0.0000000000
     36503       301  POPC      H16R           40.2767617256      -56.8326102764       -1.0581071966  MEMB      301             0.0000000000
     36504       301  POPC      H16S           40.9374481717      -55.4161288768       -1.9862085168  MEMB      301             0.0000000000
     36505       301  POPC      C217           41.2517701171      -55.2685163496        0.1075977221  MEMB      301             0.0000000000
     36506       301  POPC      H17R           42.2933338670      -55.4072020597        0.4684750578  MEMB      301             0.0000000000
     36507       301  POPC      H17S           40.6791065953      -55.8273575532        0.8783604595  MEMB      301             0.0000000000
     36508       301  POPC      C218           40.8642927412      -53.8060298681        0.0105465344  MEMB      301             0.0000000000
     36509       301  POPC      H18R           41.7173590544      -53.2370185829       -0.4170333509  MEMB      301             0.0000000000
     36510       301  POPC      H18S           40.6697884316      -53.4128286014        1.0312728288  MEMB      301             0.0000000000
     36511       301  POPC      H18T           39.9183756506      -53.6501872321       -0.5509454263  MEMB      301             0.0000000000
     36512       301  POPC      C33            36.6537828278      -52.4628229452      -14.1413254042  MEMB      301             0.0000000000
     36513       301  POPC      H3X            35.9524274969      -53.3189575059      -14.0440863806  MEMB      301             0.0000000000
     36514       301  POPC      H3Y            35.9453355747      -51.7795895234      -14.6567043453  MEMB      301             0.0000000000
     36515       301  POPC      C34            37.1903659935      -51.9255028384      -12.7714923745  MEMB      301             0.0000000000
     36516       301  POPC      H4X            37.2769887805      -50.8352966528      -12.9671143875  MEMB      301             0.0000000000
     36517       301  POPC      H4Y            38.2031167172      -52.3273239612      -12.5542434266  MEMB      301             0.0000000000
     36518       301  POPC      C35            36.1537586998      -52.2360129246      -11.6530870273  MEMB      301             0.0000000000
     36519       301  POPC      H5X            35.6935147524      -53.2360952270      -11.8025250973  MEMB      301             0.0000000000
     36520       301  POPC      H5Y            35.3285758088      -51.4922869705      -11.6693896174  MEMB      301             0.0000000000
     36521       301  POPC      C36            36.7909320647      -52.2371863234      -10.3435299295  MEMB      301             0.0000000000
     36522       301  POPC      H6X            37.3014686962      -51.2648292011      -10.1756163339  MEMB      301             0.0000000000
     36523       301  POPC      H6Y            37.6014121440      -52.9970614263      -10.3492818328  MEMB      301             0.0000000000
     36524       301  POPC      C37            35.9191424353      -52.6019417106       -9.0611198944  MEMB      301             0.0000000000
     36525       301  POPC      H7X            35.6307077483      -53.6747532976       -9.0753191038  MEMB      301             0.0000000000
     36526       301  POPC      H7Y            34.9358138531      -52.0931969664       -9.1536661326  MEMB      301             0.0000000000
     36527       301  POPC      C38            36.5379846776      -52.1443402712       -7.7225105121  MEMB      301             0.0000000000
     36528       301  POPC      H8X            36.5731420841      -51.0347744983       -7.6783701725  MEMB      301             0.0000000000
     36529       301  POPC      H8Y            37.5494449848      -52.5206159712       -7.4585291875  MEMB      301             0.0000000000
     36530       301  POPC      C39            35.7126558376      -52.5142069317       -6.4588235608  MEMB      301             0.0000000000
     36531       301  POPC      H9X            34.6922202784      -52.1129315320       -6.6377386886  MEMB      301             0.0000000000
     36532       301  POPC      H9Y            36.1948304348      -52.0768093399       -5.5585391437  MEMB      301             0.0000000000
     36533       301  POPC      C310           35.6224676566      -54.0574797777       -6.1505691995  MEMB      301             0.0000000000
     36534       301  POPC      H10X           36.5971331071      -54.5081362737       -5.8655132576  MEMB      301             0.0000000000
     36535       301  POPC      H10Y           35.1797071557      -54.4373762143       -7.0960649432  MEMB      301             0.0000000000
     36536       301  POPC      C311           34.6009012517      -54.3936185786       -5.0563402300  MEMB      301             0.0000000000
     36537       301  POPC      H11X           34.5058552061      -55.5001230764       -5.0869237411  MEMB      301             0.0000000000
     36538       301  POPC      H11Y           33.6177721375      -54.0097109887       -5.4033173382  MEMB      301             0.0000000000
     36539       301  POPC      C312           35.0424552574      -53.9470166643       -3.6287786363  MEMB      301             0.0000000000
     36540       301  POPC      H12X           34.2717335064      -54.3266714431       -2.9243849949  MEMB      301             0.0000000000
     36541       301  POPC      H12Y           35.0774951339      -52.8420798185       -3.7392651788  MEMB      301             0.0000000000
     36542       301  POPC      C313           36.3979974332      -54.6257994978       -3.2003624626  MEMB      301             0.0000000000
     36543       301  POPC      H13X           37.1084038822      -54.0948678318       -3.8695079881  MEMB      301             0.0000000000
     36544       301  POPC      H13Y           36.4345760634      -55.7240679313       -3.3640373673  MEMB      301             0.0000000000
     36545       301  POPC      C314           36.7180094107      -54.1219447976       -1.7848264506  MEMB      301             0.0000000000
     36546       301  POPC      H14X           36.5763498426      -53.0235961282       -1.6960348001  MEMB      301             0.0000000000
     36547       301  POPC      H14Y           37.7331722591      -54.3440284337       -1.3918334187  MEMB      301             0.0000000000
     36548       301  POPC      C315           35.8329592328      -54.7750017100       -0.6928152153  MEMB      301             0.0000000000
     36549       301  POPC      H15X           34.7764068978      -54.4371452453       -0.6305970242  MEMB      301             0.0000000000
     36550       301  POPC      H15Y           36.2645005958      -54.5506032830        0.3060544857  MEMB      301             0.0000000000
     36551       301  POPC      C316           35.7660296841      -56.2756829648       -0.8370104186  MEMB      301             0.0000000000
     36552       301  POPC      H16X           35.2254134369      -56.6074500369       -1.7491444722  MEMB      301             0.0000000000
     36553       301  POPC      H16Y           35.2180034786      -56.6410937440        0.0576756264  MEMB      301             0.0000000000
     36554       301  POPC      H16Z           36.7032500292      -56.8596939539       -0.7150664919  MEMB      301             0.0000000000
     36555       302  POPC      N             -55.8736149274       43.1860307209      -19.5400823203  MEMB      302             0.0000000000
     36556       302  POPC      C12           -55.8249136137       42.2450158337      -18.2656795898  MEMB      302             0.0000000000
     36557       302  POPC      H12A          -56.3860804176       41.3692122395      -18.5562995459  MEMB      302             0.0000000000
     36558       302  POPC      H12B          -56.3524100000       42.7780965816      -17.4885229170  MEMB      302             0.0000000000
     36559       302  POPC      C13           -55.4440843676       42.3865560491      -20.7765803684  MEMB      302             0.0000000000
     36560       302  POPC      H13A          -55.2162264869       42.8833652682      -21.7080638034  MEMB      302             0.0000000000
     36561       302  POPC      H13B          -54.5738752150       41.7785314541      -20.5779800482  MEMB      302             0.0000000000
     36562       302  POPC      H13C          -56.1457610633       41.5809062907      -20.9346250500  MEMB      302             0.0000000000
     36563       302  POPC      C14           -57.2970006699       43.6164197482      -19.7794904044  MEMB      302             0.0000000000
     36564       302  POPC      H14A          -57.9027756334       42.8095282652      -20.1646696424  MEMB      302             0.0000000000
     36565       302  POPC      H14B          -57.6384439245       43.9763316730      -18.8201782066  MEMB      302             0.0000000000
     36566       302  POPC      H14C          -57.3022177661       44.4342085557      -20.4848938346  MEMB      302             0.0000000000
     36567       302  POPC      C15           -55.0686719460       44.4036133816      -19.3344051366  MEMB      302             0.0000000000
     36568       302  POPC      H15A          -55.5692966881       44.9423308716      -18.5434826773  MEMB      302             0.0000000000
     36569       302  POPC      H15B          -54.9262902297       44.9168938040      -20.2739106895  MEMB      302             0.0000000000
     36570       302  POPC      H15C          -54.0647260310       44.2980039326      -18.9505572586  MEMB      302             0.0000000000
     36571       302  POPC      C11           -54.4695391817       41.8214861119      -17.6255176705  MEMB      302             0.0000000000
     36572       302  POPC      H11A          -54.7906811092       41.1009464423      -16.8432060685  MEMB      302             0.0000000000
     36573       302  POPC      H11B          -53.9689272964       42.5681246858      -16.9726474411  MEMB      302             0.0000000000
     36574       302  POPC      P             -52.0702414805       41.7120279350      -18.7846957314  MEMB      302             0.0000000000
     36575       302  POPC      O13           -52.0410133041       43.0816158182      -19.3648753527  MEMB      302             0.0000000000
     36576       302  POPC      O14           -51.3945511085       40.6500673683      -19.6160501344  MEMB      302             0.0000000000
     36577       302  POPC      O12           -53.5863184930       41.3046698573      -18.5966161263  MEMB      302             0.0000000000
     36578       302  POPC      O11           -51.5477086179       41.6609252660      -17.3160071611  MEMB      302             0.0000000000
     36579       302  POPC      C1            -50.1472104599       42.0582543559      -17.2056317795  MEMB      302             0.0000000000
     36580       302  POPC      HA            -50.1021585116       43.1454347604      -17.4299751330  MEMB      302             0.0000000000
     36581       302  POPC      HB            -49.5069299678       41.5194743722      -17.9364382891  MEMB      302             0.0000000000
     36582       302  POPC      C2            -49.7726668533       42.0467524181      -15.7220835380  MEMB      302             0.0000000000
     36583       302  POPC      HS            -49.8042561253       41.0066887855      -15.3327363438  MEMB      302             0.0000000000
     36584       302  POPC      O21           -50.4974104651       42.9787171362      -14.9235340309  MEMB      302             0.0000000000
     36585       302  POPC      C21           -51.7092726711       42.6165486115      -14.4603452229  MEMB      302             0.0000000000
     36586       302  POPC      O22           -52.2684107728       41.6036653020      -14.7519624153  MEMB      302             0.0000000000
     36587       302  POPC      C22           -52.3014859568       43.6725118428      -13.5622641039  MEMB      302             0.0000000000
     36588       302  POPC      H2R           -52.7571632183       44.3852435828      -14.2824672266  MEMB      302             0.0000000000
     36589       302  POPC      H2S           -51.4047435503       44.0907966385      -13.0570786008  MEMB      302             0.0000000000
     36590       302  POPC      C3            -48.2234530712       42.3227666051      -15.6440763050  MEMB      302             0.0000000000
     36591       302  POPC      HX            -48.1258162882       43.2008033886      -16.3177521897  MEMB      302             0.0000000000
     36592       302  POPC      HY            -47.6446730716       41.4853154408      -16.0890591665  MEMB      302             0.0000000000
     36593       302  POPC      O31           -47.7766432399       42.6554363685      -14.2965626781  MEMB      302             0.0000000000
     36594       302  POPC      C31           -47.5002153691       41.6964446083      -13.3855234094  MEMB      302             0.0000000000
     36595       302  POPC      O32           -47.5331350096       40.5242944129      -13.5844895123  MEMB      302             0.0000000000
     36596       302  POPC      C32           -47.2189892035       42.4534460454      -12.0012419061  MEMB      302             0.0000000000
     36597       302  POPC      H2X           -46.7365547792       43.4285976425      -12.2263131748  MEMB      302             0.0000000000
     36598       302  POPC      H2Y           -46.5286100337       41.8010833153      -11.4249433499  MEMB      302             0.0000000000
     36599       302  POPC      C23           -53.1874005031       43.0336277370      -12.4846218173  MEMB      302             0.0000000000
     36600       302  POPC      H3R           -53.9925929194       42.3729861237      -12.8713238235  MEMB      302             0.0000000000
     36601       302  POPC      H3S           -53.7650893619       43.8235834697      -11.9587257471  MEMB      302             0.0000000000
     36602       302  POPC      C24           -52.4334582500       42.3241572281      -11.3658490256  MEMB      302             0.0000000000
     36603       302  POPC      H4R           -51.4716195567       42.7732715912      -11.0380027035  MEMB      302             0.0000000000
     36604       302  POPC      H4S           -52.0551181320       41.3900076597      -11.8333362558  MEMB      302             0.0000000000
     36605       302  POPC      C25           -53.2793300404       42.1698888995      -10.1093504487  MEMB      302             0.0000000000
     36606       302  POPC      H5R           -54.1887693501       41.6004172644      -10.3973492887  MEMB      302             0.0000000000
     36607       302  POPC      H5S           -53.6238169680       43.1811304855       -9.8043256007  MEMB      302             0.0000000000
     36608       302  POPC      C26           -52.4689747460       41.4158883692       -9.0358711227  MEMB      302             0.0000000000
     36609       302  POPC      H6R           -51.8559579508       42.1211667598       -8.4349438697  MEMB      302             0.0000000000
     36610       302  POPC      H6S           -51.7907491332       40.6773965029       -9.5143697263  MEMB      302             0.0000000000
     36611       302  POPC      C27           -53.4147530766       40.6922382616       -8.1034268303  MEMB      302             0.0000000000
     36612       302  POPC      H7R           -53.7798534760       39.7850750084       -8.6307570274  MEMB      302             0.0000000000
     36613       302  POPC      H7S           -54.2081968740       41.4209761384       -7.8319327277  MEMB      302             0.0000000000
     36614       302  POPC      C28           -52.6502701522       40.1327404818       -6.8769336491  MEMB      302             0.0000000000
     36615       302  POPC      H8R           -52.1175279181       41.0226757254       -6.4787864765  MEMB      302             0.0000000000
     36616       302  POPC      H8S           -51.8560145626       39.4478231682       -7.2434953972  MEMB      302             0.0000000000
     36617       302  POPC      C29           -53.5487087850       39.5474086766       -5.8074244816  MEMB      302             0.0000000000
     36618       302  POPC      H91           -54.5978659109       39.4298945614       -6.1163917620  MEMB      302             0.0000000000
     36619       302  POPC      C210          -53.0942250984       38.9862669497       -4.6230730995  MEMB      302             0.0000000000
     36620       302  POPC      H101          -53.8335550537       38.3853285527       -4.0732872644  MEMB      302             0.0000000000
     36621       302  POPC      C211          -51.6528360562       38.8864831852       -4.2619524838  MEMB      302             0.0000000000
     36622       302  POPC      H11R          -50.9769316503       38.8225849005       -5.1413786151  MEMB      302             0.0000000000
     36623       302  POPC      H11S          -51.4755299723       37.9266390650       -3.7313083080  MEMB      302             0.0000000000
     36624       302  POPC      C212          -51.2197781141       40.0539820517       -3.3659122158  MEMB      302             0.0000000000
     36625       302  POPC      H12R          -51.7824609281       39.7033504249       -2.4744155346  MEMB      302             0.0000000000
     36626       302  POPC      H12S          -51.5396467486       41.0615149928       -3.7077920849  MEMB      302             0.0000000000
     36627       302  POPC      C213          -49.7425734807       40.1511785681       -3.1923825525  MEMB      302             0.0000000000
     36628       302  POPC      H13R          -49.3622726672       40.4881031053       -4.1803978430  MEMB      302             0.0000000000
     36629       302  POPC      H13S          -49.2094323508       39.2257193631       -2.8864303925  MEMB      302             0.0000000000
     36630       302  POPC      C214          -49.2755778890       41.2563414706       -2.2303391548  MEMB      302             0.0000000000
     36631       302  POPC      H14R          -50.1482935405       41.9170084256       -2.0400564134  MEMB      302             0.0000000000
     36632       302  POPC      H14S          -48.3912968192       41.8174400614       -2.6011980097  MEMB      302             0.0000000000
     36633       302  POPC      C215          -48.8976242208       40.7488786773       -0.8433570787  MEMB      302             0.0000000000
     36634       302  POPC      H15R          -47.8137935711       40.5189945231       -0.7609850040  MEMB      302             0.0000000000
     36635       302  POPC      H15S          -49.3765044924       39.7831710143       -0.5742782028  MEMB      302             0.0000000000
     36636       302  POPC      C216          -49.3097970307       41.7567501392        0.3244572448  MEMB      302             0.0000000000
     36637       302  POPC      H16R          -48.8732794687       41.3218374652        1.2489167321  MEMB      302             0.0000000000
     36638       302  POPC      H16S          -50.4172451762       41.8453507216        0.3298579503  MEMB      302             0.0000000000
     36639       302  POPC      C217          -48.6665154247       43.1872768905        0.1394590681  MEMB      302             0.0000000000
     36640       302  POPC      H17R          -49.0673870953       43.6004851838       -0.8107427233  MEMB      302             0.0000000000
     36641       302  POPC      H17S          -47.5637100251       43.1684178950        0.0060960632  MEMB      302             0.0000000000
     36642       302  POPC      C218          -49.0189357983       44.1745580430        1.2496097949  MEMB      302             0.0000000000
     36643       302  POPC      H18R          -48.4609700478       43.9170357206        2.1751782874  MEMB      302             0.0000000000
     36644       302  POPC      H18S          -50.1109838306       44.1886464711        1.4534571707  MEMB      302             0.0000000000
     36645       302  POPC      H18T          -48.5788763106       45.1392652746        0.9179343957  MEMB      302             0.0000000000
     36646       302  POPC      C33           -48.4730459486       42.7222425799      -11.2183476582  MEMB      302             0.0000000000
     36647       302  POPC      H3X           -48.8289244238       41.7953881744      -10.7197373233  MEMB      302             0.0000000000
     36648       302  POPC      H3Y           -49.2622469289       43.2086157328      -11.8306580736  MEMB      302             0.0000000000
     36649       302  POPC      C34           -48.1381083406       43.7882853200      -10.1487903980  MEMB      302             0.0000000000
     36650       302  POPC      H4X           -47.6063367945       44.6182828966      -10.6612779256  MEMB      302             0.0000000000
     36651       302  POPC      H4Y           -47.3644746607       43.3982168522       -9.4533352439  MEMB      302             0.0000000000
     36652       302  POPC      C35           -49.3694709571       44.3330469742       -9.3791776466  MEMB      302             0.0000000000
     36653       302  POPC      H5X           -49.9316860553       43.4666570933       -8.9697830783  MEMB      302             0.0000000000
     36654       302  POPC      H5Y           -49.9810741694       44.6891457822      -10.2355977723  MEMB      302             0.0000000000
     36655       302  POPC      C36           -49.1858019662       45.3610932349       -8.2541037562  MEMB      302             0.0000000000
     36656       302  POPC      H6X           -48.5393983187       46.1987086426       -8.5930486823  MEMB      302             0.0000000000
     36657       302  POPC      H6Y           -48.6651768458       44.9720533342       -7.3530382649  MEMB      302             0.0000000000
     36658       302  POPC      C37           -50.5251164626       45.9847531609       -7.7798068480  MEMB      302             0.0000000000
     36659       302  POPC      H7X           -51.1989032660       46.2699182899       -8.6158772646  MEMB      302             0.0000000000
     36660       302  POPC      H7Y           -50.2791719901       46.8844924923       -7.1762331756  MEMB      302             0.0000000000
     36661       302  POPC      C38           -51.3238237167       45.0596748638       -6.8918704647  MEMB      302             0.0000000000
     36662       302  POPC      H8X           -50.7374557888       44.7665772171       -5.9948823975  MEMB      302             0.0000000000
     36663       302  POPC      H8Y           -51.4536928577       44.0877279793       -7.4141485805  MEMB      302             0.0000000000
     36664       302  POPC      C39           -52.7716361943       45.5568508410       -6.4884132428  MEMB      302             0.0000000000
     36665       302  POPC      H9X           -53.1778467366       46.0181689917       -7.4138854302  MEMB      302             0.0000000000
     36666       302  POPC      H9Y           -52.7720036082       46.2806038619       -5.6454997675  MEMB      302             0.0000000000
     36667       302  POPC      C310          -53.4660087873       44.3404477107       -6.0569743514  MEMB      302             0.0000000000
     36668       302  POPC      H10X          -52.8726038685       43.6232526014       -5.4504902831  MEMB      302             0.0000000000
     36669       302  POPC      H10Y          -53.6434356145       43.7472578134       -6.9794530756  MEMB      302             0.0000000000
     36670       302  POPC      C311          -54.8693170246       44.5113493118       -5.5224396041  MEMB      302             0.0000000000
     36671       302  POPC      H11X          -55.2510649966       43.4717769933       -5.6112025727  MEMB      302             0.0000000000
     36672       302  POPC      H11Y          -55.4345839172       45.2689521068       -6.1062489740  MEMB      302             0.0000000000
     36673       302  POPC      C312          -55.0778772409       44.9059128001       -4.0716229261  MEMB      302             0.0000000000
     36674       302  POPC      H12X          -56.1471287444       45.1807527646       -3.9471817603  MEMB      302             0.0000000000
     36675       302  POPC      H12Y          -54.4429822179       45.7503763056       -3.7279517110  MEMB      302             0.0000000000
     36676       302  POPC      C313          -54.7424066696       43.7763260728       -3.0901938592  MEMB      302             0.0000000000
     36677       302  POPC      H13X          -53.7498602295       43.3096707105       -3.2674102765  MEMB      302             0.0000000000
     36678       302  POPC      H13Y          -55.4814468047       42.9604840961       -3.2403343923  MEMB      302             0.0000000000
     36679       302  POPC      C314          -54.7850035286       44.1699569635       -1.5785087034  MEMB      302             0.0000000000
     36680       302  POPC      H14X          -55.7121625246       44.7737286236       -1.4777279081  MEMB      302             0.0000000000
     36681       302  POPC      H14Y          -53.8985127286       44.8242208012       -1.4357017754  MEMB      302             0.0000000000
     36682       302  POPC      C315          -54.7309077083       43.1255519517       -0.4479001828  MEMB      302             0.0000000000
     36683       302  POPC      H15X          -55.5065457576       42.3302091523       -0.4362330346  MEMB      302             0.0000000000
     36684       302  POPC      H15Y          -54.8020539843       43.8098066787        0.4244859917  MEMB      302             0.0000000000
     36685       302  POPC      C316          -53.3904886783       42.3602826296       -0.2524075585  MEMB      302             0.0000000000
     36686       302  POPC      H16X          -53.3889184579       41.5414453682       -1.0032897936  MEMB      302             0.0000000000
     36687       302  POPC      H16Y          -53.2774613884       41.7951945094        0.6974453567  MEMB      302             0.0000000000
     36688       302  POPC      H16Z          -52.4902108463       43.0108823482       -0.2756559303  MEMB      302             0.0000000000
     36689       303  POPC      N             -53.4489360316      -42.8580790672      -20.1163604290  MEMB      303             0.0000000000
     36690       303  POPC      C12           -53.3018807017      -42.5221781057      -18.6055375654  MEMB      303             0.0000000000
     36691       303  POPC      H12A          -52.7311233859      -41.6171553589      -18.4586697298  MEMB      303             0.0000000000
     36692       303  POPC      H12B          -52.8316280285      -43.3398814452      -18.0795875102  MEMB      303             0.0000000000
     36693       303  POPC      C13           -53.9221241587      -41.6369366343      -20.8727973629  MEMB      303             0.0000000000
     36694       303  POPC      H13A          -53.1811311335      -40.8620410043      -21.0026664037  MEMB      303             0.0000000000
     36695       303  POPC      H13B          -54.2242705113      -41.8808119146      -21.8805832007  MEMB      303             0.0000000000
     36696       303  POPC      H13C          -54.7844987333      -41.2354916857      -20.3613756078  MEMB      303             0.0000000000
     36697       303  POPC      C14           -52.0168533005      -43.2094385395      -20.6101830033  MEMB      303             0.0000000000
     36698       303  POPC      H14A          -51.9478782812      -43.3799428703      -21.6744060354  MEMB      303             0.0000000000
     36699       303  POPC      H14B          -51.2878759198      -42.4693482448      -20.3147874452  MEMB      303             0.0000000000
     36700       303  POPC      H14C          -51.7228738759      -44.1095397499      -20.0907662357  MEMB      303             0.0000000000
     36701       303  POPC      C15           -54.3396848413      -44.0951814461      -20.2769362346  MEMB      303             0.0000000000
     36702       303  POPC      H15A          -54.2081887568      -44.7555829602      -19.4325556773  MEMB      303             0.0000000000
     36703       303  POPC      H15B          -53.9583313031      -44.6163256422      -21.1426025043  MEMB      303             0.0000000000
     36704       303  POPC      H15C          -55.3699442756      -43.8132908126      -20.4366329316  MEMB      303             0.0000000000
     36705       303  POPC      C11           -54.6360517539      -42.2655903709      -17.7713128242  MEMB      303             0.0000000000
     36706       303  POPC      H11A          -54.4455232072      -41.9900693185      -16.7120168861  MEMB      303             0.0000000000
     36707       303  POPC      H11B          -55.1254526259      -43.2524094487      -17.9162122482  MEMB      303             0.0000000000
     36708       303  POPC      P             -56.9911302569      -41.1212939736      -18.1987232877  MEMB      303             0.0000000000
     36709       303  POPC      O13           -57.5297098316      -42.4839729399      -18.4532360162  MEMB      303             0.0000000000
     36710       303  POPC      O14           -57.5165247271      -40.0901630128      -19.0670244793  MEMB      303             0.0000000000
     36711       303  POPC      O12           -55.3964129615      -41.2250941039      -18.3771006020  MEMB      303             0.0000000000
     36712       303  POPC      O11           -57.2868381384      -40.7460026521      -16.6507881944  MEMB      303             0.0000000000
     36713       303  POPC      C1            -56.9821383271      -39.5391942950      -16.0379899430  MEMB      303             0.0000000000
     36714       303  POPC      HA            -57.7464861908      -38.7559930955      -16.2295347385  MEMB      303             0.0000000000
     36715       303  POPC      HB            -55.9829647426      -39.1824177231      -16.3676622019  MEMB      303             0.0000000000
     36716       303  POPC      C2            -56.9285766311      -39.8071254594      -14.4942985155  MEMB      303             0.0000000000
     36717       303  POPC      HS            -56.5483013732      -38.8584047460      -14.0588209211  MEMB      303             0.0000000000
     36718       303  POPC      O21           -55.9725097642      -40.8146972253      -14.0921256379  MEMB      303             0.0000000000
     36719       303  POPC      C21           -54.6192667062      -40.4761336696      -14.0685257913  MEMB      303             0.0000000000
     36720       303  POPC      O22           -54.2528244712      -39.3392291846      -14.3095646831  MEMB      303             0.0000000000
     36721       303  POPC      C22           -53.7585461291      -41.7001650104      -13.8281007818  MEMB      303             0.0000000000
     36722       303  POPC      H2R           -52.8872599880      -41.8106111828      -14.5085293912  MEMB      303             0.0000000000
     36723       303  POPC      H2S           -54.3045394072      -42.6677218903      -13.8213167642  MEMB      303             0.0000000000
     36724       303  POPC      C3            -58.3416870082      -40.1461243701      -13.8380073965  MEMB      303             0.0000000000
     36725       303  POPC      HX            -58.7966997426      -40.8005242593      -14.6119872945  MEMB      303             0.0000000000
     36726       303  POPC      HY            -58.9332405545      -39.2225738804      -13.6606945524  MEMB      303             0.0000000000
     36727       303  POPC      O31           -58.2523364667      -40.9420732940      -12.6567858777  MEMB      303             0.0000000000
     36728       303  POPC      C31           -57.7961294249      -40.2206321499      -11.6187350875  MEMB      303             0.0000000000
     36729       303  POPC      O32           -57.5769856400      -39.0020697108      -11.6065880804  MEMB      303             0.0000000000
     36730       303  POPC      C32           -57.7059828170      -41.1102293315      -10.3792808677  MEMB      303             0.0000000000
     36731       303  POPC      H2X           -56.7879993378      -41.7310464208      -10.3004542313  MEMB      303             0.0000000000
     36732       303  POPC      H2Y           -58.4712800521      -41.9149777649      -10.3473322629  MEMB      303             0.0000000000
     36733       303  POPC      C23           -53.1124156758      -41.7381653791      -12.3823524824  MEMB      303             0.0000000000
     36734       303  POPC      H3R           -52.7092039921      -42.7726314328      -12.3420851902  MEMB      303             0.0000000000
     36735       303  POPC      H3S           -53.8602844285      -41.8640388383      -11.5704601515  MEMB      303             0.0000000000
     36736       303  POPC      C24           -52.1590170094      -40.5791621753      -12.1932257689  MEMB      303             0.0000000000
     36737       303  POPC      H4R           -52.8442616151      -39.7109667264      -12.0883569838  MEMB      303             0.0000000000
     36738       303  POPC      H4S           -51.6053057486      -40.4595256199      -13.1489515181  MEMB      303             0.0000000000
     36739       303  POPC      C25           -51.2419977145      -40.6372559387      -10.9115066552  MEMB      303             0.0000000000
     36740       303  POPC      H5R           -50.5145636303      -39.8034247365      -10.8120775769  MEMB      303             0.0000000000
     36741       303  POPC      H5S           -50.6873264932      -41.5924031059      -11.0313178177  MEMB      303             0.0000000000
     36742       303  POPC      C26           -52.2284129479      -40.6763259326       -9.7204720848  MEMB      303             0.0000000000
     36743       303  POPC      H6R           -51.6775172994      -40.6514009097       -8.7559956472  MEMB      303             0.0000000000
     36744       303  POPC      H6S           -52.6954849659      -41.6843040642       -9.7084378533  MEMB      303             0.0000000000
     36745       303  POPC      C27           -53.1538470868      -39.4685671311       -9.4285155920  MEMB      303             0.0000000000
     36746       303  POPC      H7R           -53.9245834908      -39.5835013376      -10.2203972928  MEMB      303             0.0000000000
     36747       303  POPC      H7S           -52.6861208882      -38.4849809802       -9.6478589323  MEMB      303             0.0000000000
     36748       303  POPC      C28           -53.7872938505      -39.5148286377       -8.0300087998  MEMB      303             0.0000000000
     36749       303  POPC      H8R           -54.1093920927      -40.5265424374       -7.7028867456  MEMB      303             0.0000000000
     36750       303  POPC      H8S           -54.7003180642      -38.8950505040       -8.1587831547  MEMB      303             0.0000000000
     36751       303  POPC      C29           -52.9219874223      -38.9289178124       -6.9634673051  MEMB      303             0.0000000000
     36752       303  POPC      H91           -52.3066718644      -38.1573411245       -7.4493233283  MEMB      303             0.0000000000
     36753       303  POPC      C210          -52.8526427872      -39.2402382716       -5.6742375894  MEMB      303             0.0000000000
     36754       303  POPC      H101          -52.0950266670      -38.7025234441       -5.0852725715  MEMB      303             0.0000000000
     36755       303  POPC      C211          -53.6477613916      -40.3818546664       -5.0395489560  MEMB      303             0.0000000000
     36756       303  POPC      H11R          -54.7514775409      -40.2659445740       -5.0914783384  MEMB      303             0.0000000000
     36757       303  POPC      H11S          -53.2241901917      -40.2339645889       -4.0231648570  MEMB      303             0.0000000000
     36758       303  POPC      C212          -53.2474263428      -41.8174151419       -5.4415403847  MEMB      303             0.0000000000
     36759       303  POPC      H12R          -52.1976620347      -41.8837265893       -5.0838837799  MEMB      303             0.0000000000
     36760       303  POPC      H12S          -53.2511559592      -41.9494950678       -6.5446550054  MEMB      303             0.0000000000
     36761       303  POPC      C213          -54.0773760125      -42.9630451413       -4.8466037794  MEMB      303             0.0000000000
     36762       303  POPC      H13R          -54.1082932345      -42.6148071474       -3.7920452665  MEMB      303             0.0000000000
     36763       303  POPC      H13S          -53.6076057479      -43.9634427126       -4.9599258698  MEMB      303             0.0000000000
     36764       303  POPC      C214          -55.5179880497      -43.0891085801       -5.4713272672  MEMB      303             0.0000000000
     36765       303  POPC      H14R          -55.3550268710      -43.4873514197       -6.4956157451  MEMB      303             0.0000000000
     36766       303  POPC      H14S          -55.9943107731      -42.0875748295       -5.5374150083  MEMB      303             0.0000000000
     36767       303  POPC      C215          -56.3553807841      -44.0914379020       -4.6544202825  MEMB      303             0.0000000000
     36768       303  POPC      H15R          -55.9090489322      -45.1086398779       -4.6341952335  MEMB      303             0.0000000000
     36769       303  POPC      H15S          -57.3435248357      -44.0755618129       -5.1620026256  MEMB      303             0.0000000000
     36770       303  POPC      C216          -56.7921493209      -43.7265998807       -3.2289845900  MEMB      303             0.0000000000
     36771       303  POPC      H16R          -55.9230647778      -43.5711978197       -2.5545488039  MEMB      303             0.0000000000
     36772       303  POPC      H16S          -57.4608620462      -44.4941856056       -2.7840605379  MEMB      303             0.0000000000
     36773       303  POPC      C217          -57.4889721003      -42.3838280406       -3.2575730955  MEMB      303             0.0000000000
     36774       303  POPC      H17R          -58.2632531584      -42.3111991989       -4.0510056119  MEMB      303             0.0000000000
     36775       303  POPC      H17S          -56.6787809365      -41.6282696415       -3.3414915413  MEMB      303             0.0000000000
     36776       303  POPC      C218          -58.3403470693      -42.0021859846       -1.9973885037  MEMB      303             0.0000000000
     36777       303  POPC      H18R          -58.7856807340      -40.9848758473       -2.0302378831  MEMB      303             0.0000000000
     36778       303  POPC      H18S          -57.6661504085      -42.1776687439       -1.1319491751  MEMB      303             0.0000000000
     36779       303  POPC      H18T          -59.1657395967      -42.7289579238       -1.8397457995  MEMB      303             0.0000000000
     36780       303  POPC      C33           -58.0218770727      -40.2080672656       -9.1530914288  MEMB      303             0.0000000000
     36781       303  POPC      H3X           -58.9400945667      -39.6431995040       -9.4216472304  MEMB      303             0.0000000000
     36782       303  POPC      H3Y           -57.1467633385      -39.5583451070       -8.9377825481  MEMB      303             0.0000000000
     36783       303  POPC      C34           -58.2205142997      -40.9746461778       -7.8093889774  MEMB      303             0.0000000000
     36784       303  POPC      H4X           -57.2756980770      -41.1456924782       -7.2504739764  MEMB      303             0.0000000000
     36785       303  POPC      H4Y           -58.5008120338      -41.9984949552       -8.1372436797  MEMB      303             0.0000000000
     36786       303  POPC      C35           -59.2597102365      -40.4024640629       -6.8734970480  MEMB      303             0.0000000000
     36787       303  POPC      H5X           -59.6185020933      -41.0014746071       -6.0093350278  MEMB      303             0.0000000000
     36788       303  POPC      H5Y           -60.1225345512      -40.0982197850       -7.5038066143  MEMB      303             0.0000000000
     36789       303  POPC      C36           -58.8130837657      -38.9892838000       -6.3252234625  MEMB      303             0.0000000000
     36790       303  POPC      H6X           -59.7219370471      -38.4197865362       -6.0354315408  MEMB      303             0.0000000000
     36791       303  POPC      H6Y           -58.2535828091      -38.5359215018       -7.1712389064  MEMB      303             0.0000000000
     36792       303  POPC      C37           -57.9801106109      -39.0719496612       -5.0303099432  MEMB      303             0.0000000000
     36793       303  POPC      H7X           -57.4386954981      -40.0417829386       -5.0550856724  MEMB      303             0.0000000000
     36794       303  POPC      H7Y           -58.7310653730      -39.1195882215       -4.2129250130  MEMB      303             0.0000000000
     36795       303  POPC      C38           -57.2061740966      -37.8874136482       -4.6188172376  MEMB      303             0.0000000000
     36796       303  POPC      H8X           -57.8078983992      -36.9812296537       -4.8448250569  MEMB      303             0.0000000000
     36797       303  POPC      H8Y           -56.2065375112      -37.8141274271       -5.0980635494  MEMB      303             0.0000000000
     36798       303  POPC      C39           -56.8792324679      -37.9104299183       -3.1385533112  MEMB      303             0.0000000000
     36799       303  POPC      H9X           -57.7823242123      -38.2112193107       -2.5656021871  MEMB      303             0.0000000000
     36800       303  POPC      H9Y           -56.5886870314      -36.8663634171       -2.8939512765  MEMB      303             0.0000000000
     36801       303  POPC      C310          -55.7458314078      -38.8224472887       -2.6296611670  MEMB      303             0.0000000000
     36802       303  POPC      H10X          -54.8044155054      -38.2480531831       -2.7643037708  MEMB      303             0.0000000000
     36803       303  POPC      H10Y          -55.6495936933      -39.6579940470       -3.3555543725  MEMB      303             0.0000000000
     36804       303  POPC      C311          -55.8346123313      -39.2802357514       -1.1174271595  MEMB      303             0.0000000000
     36805       303  POPC      H11X          -56.7512620242      -39.8632461699       -0.8846759921  MEMB      303             0.0000000000
     36806       303  POPC      H11Y          -55.6535488873      -38.3449592459       -0.5457672948  MEMB      303             0.0000000000
     36807       303  POPC      C312          -54.6654759698      -40.2301898376       -0.8993997743  MEMB      303             0.0000000000
     36808       303  POPC      H12X          -53.7980537310      -39.5420305920       -0.8080938630  MEMB      303             0.0000000000
     36809       303  POPC      H12Y          -54.5594644690      -40.9045603005       -1.7759315649  MEMB      303             0.0000000000
     36810       303  POPC      C313          -54.6425914526      -40.9844429629        0.4191948569  MEMB      303             0.0000000000
     36811       303  POPC      H13X          -55.6167032363      -41.5111047887        0.5089411998  MEMB      303             0.0000000000
     36812       303  POPC      H13Y          -54.6108361211      -40.2763869933        1.2747480026  MEMB      303             0.0000000000
     36813       303  POPC      C314          -53.4413475822      -42.0345031500        0.4600783627  MEMB      303             0.0000000000
     36814       303  POPC      H14X          -52.5522240659      -41.6033471835       -0.0477459211  MEMB      303             0.0000000000
     36815       303  POPC      H14Y          -53.8053856426      -42.9499536276       -0.0534838850  MEMB      303             0.0000000000
     36816       303  POPC      C315          -53.0991033855      -42.4986845848        1.8768703295  MEMB      303             0.0000000000
     36817       303  POPC      H15X          -52.5927027417      -41.6222537061        2.3348532096  MEMB      303             0.0000000000
     36818       303  POPC      H15Y          -52.5214990752      -43.4319451022        1.7044763566  MEMB      303             0.0000000000
     36819       303  POPC      C316          -54.2516318648      -43.0109735245        2.6302350963  MEMB      303             0.0000000000
     36820       303  POPC      H16X          -54.7278072677      -43.9226357784        2.2101757108  MEMB      303             0.0000000000
     36821       303  POPC      H16Y          -54.9813313063      -42.2024554156        2.8496852362  MEMB      303             0.0000000000
     36822       303  POPC      H16Z          -53.9682282131      -43.2816100431        3.6698301151  MEMB      303             0.0000000000
     36823       304  POPC      N             -40.3125052800      -58.7565250409      -17.5789367771  MEMB      304             0.0000000000
     36824       304  POPC      C12           -39.2874506553      -59.4483464600      -18.4760137317  MEMB      304             0.0000000000
     36825       304  POPC      H12A          -39.5340721590      -60.4985177863      -18.4238768459  MEMB      304             0.0000000000
     36826       304  POPC      H12B          -38.3323471226      -59.3322532272      -17.9854022445  MEMB      304             0.0000000000
     36827       304  POPC      C13           -40.2471901772      -57.2338687015      -17.5082726388  MEMB      304             0.0000000000
     36828       304  POPC      H13A          -39.2293563619      -56.9251520726      -17.3209004312  MEMB      304             0.0000000000
     36829       304  POPC      H13B          -40.5498636083      -56.6984077170      -18.3960058243  MEMB      304             0.0000000000
     36830       304  POPC      H13C          -40.9239086473      -56.8718677400      -16.7483993840  MEMB      304             0.0000000000
     36831       304  POPC      C14           -41.6356345053      -59.1624954857      -18.0734999175  MEMB      304             0.0000000000
     36832       304  POPC      H14A          -42.4437879255      -58.7355365019      -17.4981791221  MEMB      304             0.0000000000
     36833       304  POPC      H14B          -41.7401166117      -58.8668285167      -19.1069719908  MEMB      304             0.0000000000
     36834       304  POPC      H14C          -41.6262066850      -60.2383543491      -18.1675146866  MEMB      304             0.0000000000
     36835       304  POPC      C15           -40.1956282339      -59.4156147699      -16.1840342756  MEMB      304             0.0000000000
     36836       304  POPC      H15A          -39.2557596339      -59.0423287716      -15.8049504257  MEMB      304             0.0000000000
     36837       304  POPC      H15B          -40.1858261302      -60.4577963566      -16.4671621636  MEMB      304             0.0000000000
     36838       304  POPC      H15C          -41.0781970117      -59.0155079115      -15.7071835906  MEMB      304             0.0000000000
     36839       304  POPC      C11           -39.2109494806      -59.2299909191      -20.0053575080  MEMB      304             0.0000000000
     36840       304  POPC      H11A          -40.2118811297      -59.5142434751      -20.3947895475  MEMB      304             0.0000000000
     36841       304  POPC      H11B          -38.4520279845      -59.8285603649      -20.5531474642  MEMB      304             0.0000000000
     36842       304  POPC      P             -37.4493032560      -57.2273898635      -20.3097297716  MEMB      304             0.0000000000
     36843       304  POPC      O13           -37.4891554541      -55.7837998421      -20.1167116522  MEMB      304             0.0000000000
     36844       304  POPC      O14           -36.7311619539      -57.7158966165      -21.4637298671  MEMB      304             0.0000000000
     36845       304  POPC      O12           -39.0142454383      -57.8207615081      -20.2354441260  MEMB      304             0.0000000000
     36846       304  POPC      O11           -36.8404623518      -57.9255953428      -19.0482697361  MEMB      304             0.0000000000
     36847       304  POPC      C1            -35.8048157131      -58.8438129857      -19.1115321785  MEMB      304             0.0000000000
     36848       304  POPC      HA            -34.9740557842      -58.4859962569      -19.7566104834  MEMB      304             0.0000000000
     36849       304  POPC      HB            -36.1118111124      -59.8305871389      -19.5193945238  MEMB      304             0.0000000000
     36850       304  POPC      C2            -35.3298973248      -59.2130084497      -17.7024860829  MEMB      304             0.0000000000
     36851       304  POPC      HS            -34.3730835318      -59.7676140432      -17.8085086539  MEMB      304             0.0000000000
     36852       304  POPC      O21           -36.3165411879      -60.0901411497      -17.0322294005  MEMB      304             0.0000000000
     36853       304  POPC      C21           -35.8794492647      -61.1067506910      -16.2677257712  MEMB      304             0.0000000000
     36854       304  POPC      O22           -34.7256199119      -61.3740059939      -16.0022217522  MEMB      304             0.0000000000
     36855       304  POPC      C22           -37.1023741623      -61.8878328127      -15.7789925835  MEMB      304             0.0000000000
     36856       304  POPC      H2R           -36.8142290450      -62.9604288189      -15.8078302795  MEMB      304             0.0000000000
     36857       304  POPC      H2S           -37.9968440440      -61.7823297593      -16.4294643727  MEMB      304             0.0000000000
     36858       304  POPC      C3            -35.0043899035      -58.0117441810      -16.8246229667  MEMB      304             0.0000000000
     36859       304  POPC      HX            -35.7815043186      -57.2200247374      -16.8845762130  MEMB      304             0.0000000000
     36860       304  POPC      HY            -34.0276808239      -57.5808546649      -17.1323481845  MEMB      304             0.0000000000
     36861       304  POPC      O31           -34.8570146492      -58.2800916528      -15.4569304377  MEMB      304             0.0000000000
     36862       304  POPC      C31           -35.8861557188      -58.1789214902      -14.5916625637  MEMB      304             0.0000000000
     36863       304  POPC      O32           -37.0309441068      -57.7480346679      -14.9118453523  MEMB      304             0.0000000000
     36864       304  POPC      C32           -35.4364146790      -58.5697394573      -13.1672228207  MEMB      304             0.0000000000
     36865       304  POPC      H2X           -34.6671257774      -57.8129004030      -12.9031962531  MEMB      304             0.0000000000
     36866       304  POPC      H2Y           -35.0201336212      -59.5849398341      -12.9928692962  MEMB      304             0.0000000000
     36867       304  POPC      C23           -37.3675372508      -61.5584504959      -14.2583461095  MEMB      304             0.0000000000
     36868       304  POPC      H3R           -37.9392813639      -60.6153230915      -14.1244037511  MEMB      304             0.0000000000
     36869       304  POPC      H3S           -36.3629430041      -61.5621107539      -13.7839010254  MEMB      304             0.0000000000
     36870       304  POPC      C24           -38.1624674603      -62.7589177302      -13.5923938826  MEMB      304             0.0000000000
     36871       304  POPC      H4R           -37.8646815692      -63.7408173866      -14.0184428192  MEMB      304             0.0000000000
     36872       304  POPC      H4S           -39.2234584463      -62.5676242552      -13.8607700216  MEMB      304             0.0000000000
     36873       304  POPC      C25           -38.2171428383      -62.8862962996      -12.0471489182  MEMB      304             0.0000000000
     36874       304  POPC      H5R           -37.2037131273      -62.7493786560      -11.6129429595  MEMB      304             0.0000000000
     36875       304  POPC      H5S           -38.5747424877      -63.8993169563      -11.7638954405  MEMB      304             0.0000000000
     36876       304  POPC      C26           -39.1223534879      -61.7941859305      -11.3451867637  MEMB      304             0.0000000000
     36877       304  POPC      H6R           -40.0891379431      -61.8874779287      -11.8845805093  MEMB      304             0.0000000000
     36878       304  POPC      H6S           -38.6275981393      -60.8078509800      -11.4743436136  MEMB      304             0.0000000000
     36879       304  POPC      C27           -39.4345719659      -62.0794989006       -9.8460688168  MEMB      304             0.0000000000
     36880       304  POPC      H7R           -38.4725479851      -62.0595117999       -9.2907025031  MEMB      304             0.0000000000
     36881       304  POPC      H7S           -39.8525862799      -63.0976868607       -9.6948111085  MEMB      304             0.0000000000
     36882       304  POPC      C28           -40.2270550674      -61.0259848138       -9.0878428337  MEMB      304             0.0000000000
     36883       304  POPC      H8R           -40.3411257006      -61.3073424305       -8.0191296242  MEMB      304             0.0000000000
     36884       304  POPC      H8S           -41.2221289373      -61.1153343359       -9.5738112018  MEMB      304             0.0000000000
     36885       304  POPC      C29           -39.7450158558      -59.5943902813       -9.2613803527  MEMB      304             0.0000000000
     36886       304  POPC      H91           -39.8082553049      -59.3455343787      -10.3309938075  MEMB      304             0.0000000000
     36887       304  POPC      C210          -39.2660787806      -58.7072084457       -8.3516722762  MEMB      304             0.0000000000
     36888       304  POPC      H101          -39.0436620904      -57.6765899182       -8.6652906141  MEMB      304             0.0000000000
     36889       304  POPC      C211          -39.1488489291      -59.0820141983       -6.8678863841  MEMB      304             0.0000000000
     36890       304  POPC      H11R          -38.2077470994      -58.6462742631       -6.4694151768  MEMB      304             0.0000000000
     36891       304  POPC      H11S          -38.9681117539      -60.1750873128       -6.7851450767  MEMB      304             0.0000000000
     36892       304  POPC      C212          -40.3380145484      -58.6055739462       -6.0705606126  MEMB      304             0.0000000000
     36893       304  POPC      H12R          -41.2895747915      -58.9114994856       -6.5556004979  MEMB      304             0.0000000000
     36894       304  POPC      H12S          -40.3805376177      -57.4954435241       -6.0594611517  MEMB      304             0.0000000000
     36895       304  POPC      C213          -40.3803383061      -59.0280376526       -4.5860614035  MEMB      304             0.0000000000
     36896       304  POPC      H13R          -41.1690760206      -58.3848295807       -4.1405312929  MEMB      304             0.0000000000
     36897       304  POPC      H13S          -39.3996646853      -58.7856881486       -4.1236041144  MEMB      304             0.0000000000
     36898       304  POPC      C214          -40.7944763893      -60.5446744194       -4.3616845029  MEMB      304             0.0000000000
     36899       304  POPC      H14R          -39.9151258312      -61.1981624621       -4.5461209144  MEMB      304             0.0000000000
     36900       304  POPC      H14S          -41.5234482008      -60.8816535288       -5.1293863730  MEMB      304             0.0000000000
     36901       304  POPC      C215          -41.4052763246      -60.7961919395       -2.9927335294  MEMB      304             0.0000000000
     36902       304  POPC      H15R          -41.7508913239      -61.8518460249       -2.9711540705  MEMB      304             0.0000000000
     36903       304  POPC      H15S          -42.2525916308      -60.0868362459       -2.8778751663  MEMB      304             0.0000000000
     36904       304  POPC      C216          -40.6086829245      -60.4073970895       -1.6554371929  MEMB      304             0.0000000000
     36905       304  POPC      H16R          -40.6672271801      -59.3055718351       -1.5255351441  MEMB      304             0.0000000000
     36906       304  POPC      H16S          -39.5614438477      -60.6684243786       -1.9190210633  MEMB      304             0.0000000000
     36907       304  POPC      C217          -40.9756384149      -60.9867728306       -0.3446174195  MEMB      304             0.0000000000
     36908       304  POPC      H17R          -41.9494042702      -60.7121563373        0.1143884616  MEMB      304             0.0000000000
     36909       304  POPC      H17S          -40.3169555855      -60.6736399764        0.4934789460  MEMB      304             0.0000000000
     36910       304  POPC      C218          -40.9224942096      -62.5020644643       -0.3535857977  MEMB      304             0.0000000000
     36911       304  POPC      H18R          -41.0646265181      -62.9538474591        0.6514070388  MEMB      304             0.0000000000
     36912       304  POPC      H18S          -39.8624032887      -62.6966174097       -0.6231738774  MEMB      304             0.0000000000
     36913       304  POPC      H18T          -41.5768923543      -62.9566104575       -1.1278415582  MEMB      304             0.0000000000
     36914       304  POPC      C33           -36.6731722000      -58.4799633586      -12.2740677214  MEMB      304             0.0000000000
     36915       304  POPC      H3X           -37.4898611270      -59.1091061445      -12.6882170084  MEMB      304             0.0000000000
     36916       304  POPC      H3Y           -37.0320196096      -57.4403094254      -12.1170033786  MEMB      304             0.0000000000
     36917       304  POPC      C34           -36.3004424223      -58.9728386987      -10.8654393668  MEMB      304             0.0000000000
     36918       304  POPC      H4X           -36.0294635397      -60.0164325151      -11.1334004560  MEMB      304             0.0000000000
     36919       304  POPC      H4Y           -37.1435232632      -59.1765290251      -10.1711435553  MEMB      304             0.0000000000
     36920       304  POPC      C35           -35.0753340755      -58.3111597735      -10.2880339759  MEMB      304             0.0000000000
     36921       304  POPC      H5X           -34.8103454589      -57.3492884640      -10.7768143564  MEMB      304             0.0000000000
     36922       304  POPC      H5Y           -34.2238965849      -58.9868286212      -10.5179183380  MEMB      304             0.0000000000
     36923       304  POPC      C36           -35.1758697657      -57.9405381344       -8.7366592725  MEMB      304             0.0000000000
     36924       304  POPC      H6X           -35.3626677047      -58.8978194369       -8.2046445357  MEMB      304             0.0000000000
     36925       304  POPC      H6Y           -36.0347103178      -57.2629694810       -8.5427143580  MEMB      304             0.0000000000
     36926       304  POPC      C37           -33.8482392947      -57.3107410558       -8.2248229503  MEMB      304             0.0000000000
     36927       304  POPC      H7X           -33.5943257857      -56.6002379049       -9.0403196861  MEMB      304             0.0000000000
     36928       304  POPC      H7Y           -33.1142624468      -58.1418604327       -8.1552570791  MEMB      304             0.0000000000
     36929       304  POPC      C38           -33.8395349170      -56.5182972034       -6.9194966179  MEMB      304             0.0000000000
     36930       304  POPC      H8X           -34.2668061202      -55.5537604465       -7.2679634762  MEMB      304             0.0000000000
     36931       304  POPC      H8Y           -32.8032562729      -56.3125617537       -6.5758095007  MEMB      304             0.0000000000
     36932       304  POPC      C39           -34.7005650306      -57.0728582612       -5.8003207478  MEMB      304             0.0000000000
     36933       304  POPC      H9X           -35.7294575334      -57.1582555907       -6.2106966954  MEMB      304             0.0000000000
     36934       304  POPC      H9Y           -34.5921226811      -56.3916104132       -4.9294233046  MEMB      304             0.0000000000
     36935       304  POPC      C310          -34.3566903066      -58.5263530056       -5.2418686278  MEMB      304             0.0000000000
     36936       304  POPC      H10X          -33.4408322996      -58.5041851090       -4.6133516884  MEMB      304             0.0000000000
     36937       304  POPC      H10Y          -33.9704340882      -59.2678152036       -5.9735528527  MEMB      304             0.0000000000
     36938       304  POPC      C311          -35.3986956878      -59.1235002262       -4.2259763273  MEMB      304             0.0000000000
     36939       304  POPC      H11X          -34.8927262750      -59.8961268194       -3.6084297983  MEMB      304             0.0000000000
     36940       304  POPC      H11Y          -36.3127703161      -59.4836467072       -4.7447085074  MEMB      304             0.0000000000
     36941       304  POPC      C312          -35.8604999263      -58.0461210222       -3.1311164027  MEMB      304             0.0000000000
     36942       304  POPC      H12X          -36.4715876134      -57.2553805466       -3.6165262399  MEMB      304             0.0000000000
     36943       304  POPC      H12Y          -34.9710248935      -57.4515550642       -2.8317052023  MEMB      304             0.0000000000
     36944       304  POPC      C313          -36.5181990290      -58.6214576804       -1.8595368644  MEMB      304             0.0000000000
     36945       304  POPC      H13X          -35.7968861925      -58.9928648317       -1.1005355042  MEMB      304             0.0000000000
     36946       304  POPC      H13Y          -37.0706518704      -59.5337801168       -2.1706395324  MEMB      304             0.0000000000
     36947       304  POPC      C314          -37.4259997781      -57.5605632162       -1.1280623739  MEMB      304             0.0000000000
     36948       304  POPC      H14X          -38.2165000857      -57.2875004282       -1.8594089731  MEMB      304             0.0000000000
     36949       304  POPC      H14Y          -36.7991275139      -56.6799783158       -0.8713089595  MEMB      304             0.0000000000
     36950       304  POPC      C315          -38.0607978669      -58.1611249153        0.0763677171  MEMB      304             0.0000000000
     36951       304  POPC      H15X          -37.3948577474      -58.7785683845        0.7163735836  MEMB      304             0.0000000000
     36952       304  POPC      H15Y          -38.7621338010      -58.9442474329       -0.2830326678  MEMB      304             0.0000000000
     36953       304  POPC      C316          -38.7812773162      -57.0370621064        0.9504857371  MEMB      304             0.0000000000
     36954       304  POPC      H16X          -39.2596305086      -57.4444901074        1.8667284081  MEMB      304             0.0000000000
     36955       304  POPC      H16Y          -39.5720820003      -56.4505245534        0.4357791385  MEMB      304             0.0000000000
     36956       304  POPC      H16Z          -37.8845054451      -56.4157581140        1.1604906041  MEMB      304             0.0000000000
     36957       305  POPC      N             -44.8684691400      -54.3430987380      -20.6196351658  MEMB      305             0.0000000000
     36958       305  POPC      C12           -45.8051053000      -53.1698304949      -20.5060903254  MEMB      305             0.0000000000
     36959       305  POPC      H12A          -46.5310886506      -53.2628674932      -21.3002517461  MEMB      305             0.0000000000
     36960       305  POPC      H12B          -45.3000956762      -52.2256522355      -20.6471320324  MEMB      305             0.0000000000
     36961       305  POPC      C13           -44.3852016364      -54.3987786374      -22.1218066127  MEMB      305             0.0000000000
     36962       305  POPC      H13A          -43.7035383449      -53.5697908407      -22.2422823475  MEMB      305             0.0000000000
     36963       305  POPC      H13B          -43.8347479237      -55.3136187802      -22.2844980489  MEMB      305             0.0000000000
     36964       305  POPC      H13C          -45.3132478135      -54.4301188036      -22.6733027367  MEMB      305             0.0000000000
     36965       305  POPC      C14           -43.6763375363      -54.1923606491      -19.7874641291  MEMB      305             0.0000000000
     36966       305  POPC      H14A          -43.2656185063      -53.2488029395      -20.1151968043  MEMB      305             0.0000000000
     36967       305  POPC      H14B          -43.9034056540      -54.2152703669      -18.7318528173  MEMB      305             0.0000000000
     36968       305  POPC      H14C          -42.9941989610      -55.0027976202      -19.9978889573  MEMB      305             0.0000000000
     36969       305  POPC      C15           -45.5220813856      -55.6891843315      -20.2439253946  MEMB      305             0.0000000000
     36970       305  POPC      H15A          -45.9514917600      -55.6397647104      -19.2541958442  MEMB      305             0.0000000000
     36971       305  POPC      H15B          -44.6667560572      -56.3441119183      -20.3206609304  MEMB      305             0.0000000000
     36972       305  POPC      H15C          -46.2408037297      -56.0297167685      -20.9745935474  MEMB      305             0.0000000000
     36973       305  POPC      C11           -46.4984935153      -53.0017069843      -19.0929861138  MEMB      305             0.0000000000
     36974       305  POPC      H11A          -46.8641613262      -51.9666076032      -18.9221721727  MEMB      305             0.0000000000
     36975       305  POPC      H11B          -45.6519356571      -53.0796707858      -18.3777361572  MEMB      305             0.0000000000
     36976       305  POPC      P             -48.1418205932      -54.1062232407      -17.2835158491  MEMB      305             0.0000000000
     36977       305  POPC      O13           -49.1767904806      -55.1675293036      -17.3439331885  MEMB      305             0.0000000000
     36978       305  POPC      O14           -48.6005741027      -52.7297939689      -16.8342706403  MEMB      305             0.0000000000
     36979       305  POPC      O12           -47.4968696724      -54.0026014398      -18.7621838941  MEMB      305             0.0000000000
     36980       305  POPC      O11           -46.8844528667      -54.5920037413      -16.4041886864  MEMB      305             0.0000000000
     36981       305  POPC      C1            -46.4933731876      -55.9287058413      -16.4337384511  MEMB      305             0.0000000000
     36982       305  POPC      HA            -45.5470313863      -55.9214050562      -17.0157220544  MEMB      305             0.0000000000
     36983       305  POPC      HB            -47.2028990275      -56.6629931860      -16.8715927562  MEMB      305             0.0000000000
     36984       305  POPC      C2            -46.1572780538      -56.5180915241      -14.9910176143  MEMB      305             0.0000000000
     36985       305  POPC      HS            -45.7873414401      -57.5541791389      -15.1459062816  MEMB      305             0.0000000000
     36986       305  POPC      O21           -47.2985806618      -56.4394318653      -14.1220015431  MEMB      305             0.0000000000
     36987       305  POPC      C21           -48.2043891986      -57.4167320899      -14.2679997718  MEMB      305             0.0000000000
     36988       305  POPC      O22           -48.0974972487      -58.3656434483      -15.0373584775  MEMB      305             0.0000000000
     36989       305  POPC      C22           -49.3277679154      -57.0581344424      -13.2817323890  MEMB      305             0.0000000000
     36990       305  POPC      H2R           -48.9188576249      -56.8909160489      -12.2623448235  MEMB      305             0.0000000000
     36991       305  POPC      H2S           -50.0291318379      -57.9183247293      -13.2319083003  MEMB      305             0.0000000000
     36992       305  POPC      C3            -44.9640853406      -55.7749484770      -14.4449070013  MEMB      305             0.0000000000
     36993       305  POPC      HX            -44.9877482084      -54.6643387424      -14.4273814894  MEMB      305             0.0000000000
     36994       305  POPC      HY            -44.0645401989      -55.9940095243      -15.0590341650  MEMB      305             0.0000000000
     36995       305  POPC      O31           -44.7470602912      -56.1785439409      -13.0569038829  MEMB      305             0.0000000000
     36996       305  POPC      C31           -44.1954769190      -57.3215145634      -12.7535087686  MEMB      305             0.0000000000
     36997       305  POPC      O32           -43.8217459319      -58.1743884110      -13.5600718724  MEMB      305             0.0000000000
     36998       305  POPC      C32           -44.1095251511      -57.3962586575      -11.1950762583  MEMB      305             0.0000000000
     36999       305  POPC      H2X           -45.1110680490      -57.7287185911      -10.8476526033  MEMB      305             0.0000000000
     37000       305  POPC      H2Y           -43.9271055239      -56.4047297700      -10.7282633187  MEMB      305             0.0000000000
     37001       305  POPC      C23           -49.9902035788      -55.7354738210      -13.6283141690  MEMB      305             0.0000000000
     37002       305  POPC      H3R           -50.4073219543      -55.9037230416      -14.6442009759  MEMB      305             0.0000000000
     37003       305  POPC      H3S           -49.3318053523      -54.8594415325      -13.8110714571  MEMB      305             0.0000000000
     37004       305  POPC      C24           -51.1544845278      -55.3538524288      -12.6916092349  MEMB      305             0.0000000000
     37005       305  POPC      H4R           -51.6545748645      -56.3100957137      -12.4273563783  MEMB      305             0.0000000000
     37006       305  POPC      H4S           -51.8078885507      -54.6470852915      -13.2464646472  MEMB      305             0.0000000000
     37007       305  POPC      C25           -50.6811084090      -54.7279753822      -11.3830107628  MEMB      305             0.0000000000
     37008       305  POPC      H5R           -50.0473309342      -55.4162694876      -10.7839297635  MEMB      305             0.0000000000
     37009       305  POPC      H5S           -51.5824968539      -54.5529560836      -10.7575602269  MEMB      305             0.0000000000
     37010       305  POPC      C26           -49.8350904359      -53.3741556149      -11.5135891102  MEMB      305             0.0000000000
     37011       305  POPC      H6R           -50.3047044946      -52.7877560664      -12.3320752665  MEMB      305             0.0000000000
     37012       305  POPC      H6S           -48.8355168309      -53.7490004125      -11.8212662322  MEMB      305             0.0000000000
     37013       305  POPC      C27           -49.8754906497      -52.5236156988      -10.2610983193  MEMB      305             0.0000000000
     37014       305  POPC      H7R           -50.9638015413      -52.4427107195      -10.0528791325  MEMB      305             0.0000000000
     37015       305  POPC      H7S           -49.6104681679      -51.4498609932      -10.3666202637  MEMB      305             0.0000000000
     37016       305  POPC      C28           -49.3265343793      -53.0792095407       -8.9883347473  MEMB      305             0.0000000000
     37017       305  POPC      H8R           -49.5745098641      -54.1588349795       -8.9032600026  MEMB      305             0.0000000000
     37018       305  POPC      H8S           -49.5673920241      -52.6116306203       -8.0097241972  MEMB      305             0.0000000000
     37019       305  POPC      C29           -47.8161232679      -53.1668969202       -9.1620546925  MEMB      305             0.0000000000
     37020       305  POPC      H91           -47.3810848984      -52.1669174182       -9.0178933499  MEMB      305             0.0000000000
     37021       305  POPC      C210          -46.9952003213      -54.1766198604       -9.2563182385  MEMB      305             0.0000000000
     37022       305  POPC      H101          -45.9078250684      -54.0113140650       -9.2393153311  MEMB      305             0.0000000000
     37023       305  POPC      C211          -47.2911790809      -55.6748431727       -9.1844402280  MEMB      305             0.0000000000
     37024       305  POPC      H11R          -46.7143869552      -56.1995488201       -9.9758409626  MEMB      305             0.0000000000
     37025       305  POPC      H11S          -48.3439510964      -55.7277681334       -9.5354256850  MEMB      305             0.0000000000
     37026       305  POPC      C212          -47.0659740401      -56.2609396146       -7.7879458201  MEMB      305             0.0000000000
     37027       305  POPC      H12R          -46.0125981372      -56.2559055179       -7.4348241352  MEMB      305             0.0000000000
     37028       305  POPC      H12S          -47.4747898460      -57.2931289377       -7.8300868378  MEMB      305             0.0000000000
     37029       305  POPC      C213          -47.7988325591      -55.5090045585       -6.6290955468  MEMB      305             0.0000000000
     37030       305  POPC      H13R          -48.8892575566      -55.7028828745       -6.7168771048  MEMB      305             0.0000000000
     37031       305  POPC      H13S          -47.7756103152      -54.3998682799       -6.6890831503  MEMB      305             0.0000000000
     37032       305  POPC      C214          -47.3152658830      -55.8782631063       -5.2061881583  MEMB      305             0.0000000000
     37033       305  POPC      H14R          -46.3767661937      -55.3764329151       -4.8872747754  MEMB      305             0.0000000000
     37034       305  POPC      H14S          -47.0501227111      -56.9569025585       -5.2297869351  MEMB      305             0.0000000000
     37035       305  POPC      C215          -48.3170062257      -55.7413910530       -4.0669234129  MEMB      305             0.0000000000
     37036       305  POPC      H15R          -49.2027108593      -56.3865152488       -4.2503980811  MEMB      305             0.0000000000
     37037       305  POPC      H15S          -48.5853161763      -54.6767783865       -3.8968335846  MEMB      305             0.0000000000
     37038       305  POPC      C216          -47.8119771297      -56.1121713409       -2.6705156114  MEMB      305             0.0000000000
     37039       305  POPC      H16R          -47.2011870864      -55.3487369230       -2.1428560263  MEMB      305             0.0000000000
     37040       305  POPC      H16S          -46.9717305843      -56.8251061266       -2.8120450854  MEMB      305             0.0000000000
     37041       305  POPC      C217          -48.8095269277      -56.6721697205       -1.6069874197  MEMB      305             0.0000000000
     37042       305  POPC      H17R          -49.6904940479      -56.0020657589       -1.5111818065  MEMB      305             0.0000000000
     37043       305  POPC      H17S          -48.2827031856      -56.8380301647       -0.6430001313  MEMB      305             0.0000000000
     37044       305  POPC      C218          -49.5812785410      -58.0458574996       -2.0084316568  MEMB      305             0.0000000000
     37045       305  POPC      H18R          -50.0867170974      -58.3181607126       -1.0572740547  MEMB      305             0.0000000000
     37046       305  POPC      H18S          -48.8426642167      -58.8065979423       -2.3401607408  MEMB      305             0.0000000000
     37047       305  POPC      H18T          -50.2585750506      -57.9094794439       -2.8784851798  MEMB      305             0.0000000000
     37048       305  POPC      C33           -43.0937088166      -58.4189947210      -10.6742393464  MEMB      305             0.0000000000
     37049       305  POPC      H3X           -42.0831784146      -58.0210690537      -10.9083424489  MEMB      305             0.0000000000
     37050       305  POPC      H3Y           -43.3041822657      -59.3043354171      -11.3115729916  MEMB      305             0.0000000000
     37051       305  POPC      C34           -43.2288681100      -58.7423155905       -9.1784911302  MEMB      305             0.0000000000
     37052       305  POPC      H4X           -42.3085312856      -59.3175818663       -8.9410678954  MEMB      305             0.0000000000
     37053       305  POPC      H4Y           -44.1756700158      -59.2398438067       -8.8779025662  MEMB      305             0.0000000000
     37054       305  POPC      C35           -43.2169444587      -57.4098420224       -8.3793759842  MEMB      305             0.0000000000
     37055       305  POPC      H5X           -44.1030355098      -56.7969458449       -8.6505259522  MEMB      305             0.0000000000
     37056       305  POPC      H5Y           -42.2672113929      -56.8454876323       -8.4969879376  MEMB      305             0.0000000000
     37057       305  POPC      C36           -43.4117130891      -57.6877392478       -6.8495966113  MEMB      305             0.0000000000
     37058       305  POPC      H6X           -42.5637994011      -58.2975079107       -6.4707213992  MEMB      305             0.0000000000
     37059       305  POPC      H6Y           -44.3155432826      -58.3190254217       -6.7121561680  MEMB      305             0.0000000000
     37060       305  POPC      C37           -43.5077456299      -56.3779372543       -5.9649324953  MEMB      305             0.0000000000
     37061       305  POPC      H7X           -44.3540304872      -55.7054694894       -6.2216622320  MEMB      305             0.0000000000
     37062       305  POPC      H7Y           -42.5935078982      -55.8144500953       -6.2494901103  MEMB      305             0.0000000000
     37063       305  POPC      C38           -43.5527692065      -56.7401860953       -4.4484408955  MEMB      305             0.0000000000
     37064       305  POPC      H8X           -42.7609320545      -57.5114515997       -4.3367970350  MEMB      305             0.0000000000
     37065       305  POPC      H8Y           -44.4933944890      -57.2561244467       -4.1597308986  MEMB      305             0.0000000000
     37066       305  POPC      C39           -43.3192180600      -55.5489730291       -3.4906808411  MEMB      305             0.0000000000
     37067       305  POPC      H9X           -44.1670386228      -54.8359833681       -3.5753374672  MEMB      305             0.0000000000
     37068       305  POPC      H9Y           -42.3026349542      -55.1257282020       -3.6381382176  MEMB      305             0.0000000000
     37069       305  POPC      C310          -43.3339886369      -55.9645993304       -2.0092346946  MEMB      305             0.0000000000
     37070       305  POPC      H10X          -42.4714244138      -56.6274659754       -1.7835982907  MEMB      305             0.0000000000
     37071       305  POPC      H10Y          -44.2565198378      -56.5723992628       -1.8916074796  MEMB      305             0.0000000000
     37072       305  POPC      C311          -43.4611421829      -54.7032800256       -1.0267877187  MEMB      305             0.0000000000
     37073       305  POPC      H11X          -42.5116379131      -54.1397921511       -1.1502521188  MEMB      305             0.0000000000
     37074       305  POPC      H11Y          -43.3659123554      -55.0109821235        0.0364967652  MEMB      305             0.0000000000
     37075       305  POPC      C312          -44.6531244195      -53.7885965715       -1.2809358064  MEMB      305             0.0000000000
     37076       305  POPC      H12X          -45.5852153990      -54.3635500520       -1.4678994130  MEMB      305             0.0000000000
     37077       305  POPC      H12Y          -44.6725059281      -53.2151484119       -2.2323032475  MEMB      305             0.0000000000
     37078       305  POPC      C313          -44.8895481785      -52.8415142850       -0.1460200369  MEMB      305             0.0000000000
     37079       305  POPC      H13X          -45.1818696637      -51.8326720174       -0.5081076475  MEMB      305             0.0000000000
     37080       305  POPC      H13Y          -43.8688286249      -52.7096305251        0.2723804281  MEMB      305             0.0000000000
     37081       305  POPC      C314          -45.8588641352      -53.3087101802        0.9170640723  MEMB      305             0.0000000000
     37082       305  POPC      H14X          -45.7579254072      -52.5191056309        1.6920832152  MEMB      305             0.0000000000
     37083       305  POPC      H14Y          -45.5299464028      -54.2996348932        1.2968034999  MEMB      305             0.0000000000
     37084       305  POPC      C315          -47.3960872928      -53.4765311731        0.5925339601  MEMB      305             0.0000000000
     37085       305  POPC      H15X          -47.5140431329      -53.9797474924       -0.3909200607  MEMB      305             0.0000000000
     37086       305  POPC      H15Y          -47.7590359507      -52.4291367313        0.5180092402  MEMB      305             0.0000000000
     37087       305  POPC      C316          -48.1392409729      -54.2901688640        1.6281453508  MEMB      305             0.0000000000
     37088       305  POPC      H16X          -47.7506075542      -55.3278738962        1.7084794543  MEMB      305             0.0000000000
     37089       305  POPC      H16Y          -49.2061028544      -54.2638797272        1.3192180777  MEMB      305             0.0000000000
     37090       305  POPC      H16Z          -47.9270667230      -53.7934956816        2.5990312692  MEMB      305             0.0000000000
     37091       306  POPC      N              50.6836075809      -50.6227229725      -20.5020578064  MEMB      306             0.0000000000
     37092       306  POPC      C12            50.3853594900      -50.0757395410      -19.0959225694  MEMB      306             0.0000000000
     37093       306  POPC      H12A           50.5376487349      -49.0087763323      -19.1651861989  MEMB      306             0.0000000000
     37094       306  POPC      H12B           50.8682544008      -50.5873465005      -18.2764893455  MEMB      306             0.0000000000
     37095       306  POPC      C13            50.7620576435      -52.1433367223      -20.4707250419  MEMB      306             0.0000000000
     37096       306  POPC      H13A           49.8541121786      -52.5399356920      -20.0409060615  MEMB      306             0.0000000000
     37097       306  POPC      H13B           50.9067530619      -52.5772897427      -21.4490644432  MEMB      306             0.0000000000
     37098       306  POPC      H13C           51.5142036332      -52.4373538909      -19.7536265223  MEMB      306             0.0000000000
     37099       306  POPC      C14            49.4824215926      -50.2748788179      -21.3743042956  MEMB      306             0.0000000000
     37100       306  POPC      H14A           48.7595559816      -50.9993485351      -21.0293274607  MEMB      306             0.0000000000
     37101       306  POPC      H14B           49.3249986843      -49.2957353190      -20.9466408992  MEMB      306             0.0000000000
     37102       306  POPC      H14C           49.7524779851      -50.1582229166      -22.4134678574  MEMB      306             0.0000000000
     37103       306  POPC      C15            51.9106762756      -50.0241801483      -21.1136311824  MEMB      306             0.0000000000
     37104       306  POPC      H15A           51.8491708603      -48.9482550326      -21.0429042086  MEMB      306             0.0000000000
     37105       306  POPC      H15B           52.0193781982      -50.2199207108      -22.1701677660  MEMB      306             0.0000000000
     37106       306  POPC      H15C           52.7295869732      -50.4255083788      -20.5350805421  MEMB      306             0.0000000000
     37107       306  POPC      C11            48.8374490603      -50.2747524008      -18.6027924353  MEMB      306             0.0000000000
     37108       306  POPC      H11A           48.2021364160      -49.6744390842      -19.2885933203  MEMB      306             0.0000000000
     37109       306  POPC      H11B           48.6759697151      -49.7487876595      -17.6375948077  MEMB      306             0.0000000000
     37110       306  POPC      P              48.6930391592      -52.7156081562      -17.5577208503  MEMB      306             0.0000000000
     37111       306  POPC      O13            50.0665690640      -52.4781552058      -16.9727048050  MEMB      306             0.0000000000
     37112       306  POPC      O14            48.3073406135      -54.0225719941      -18.1390092492  MEMB      306             0.0000000000
     37113       306  POPC      O12            48.4220262057      -51.6157801034      -18.6293401814  MEMB      306             0.0000000000
     37114       306  POPC      O11            47.5946484137      -52.1830586416      -16.5417915779  MEMB      306             0.0000000000
     37115       306  POPC      C1             46.2415048938      -52.1085378293      -16.9198844381  MEMB      306             0.0000000000
     37116       306  POPC      HA             46.0169886853      -52.7963074588      -17.7630251227  MEMB      306             0.0000000000
     37117       306  POPC      HB             45.9473845458      -51.0872293407      -17.2435244322  MEMB      306             0.0000000000
     37118       306  POPC      C2             45.3948862549      -52.5145148215      -15.6655280469  MEMB      306             0.0000000000
     37119       306  POPC      HS             44.4000571206      -52.0276244210      -15.5784988587  MEMB      306             0.0000000000
     37120       306  POPC      O21            46.1005785841      -52.1579473612      -14.4940843701  MEMB      306             0.0000000000
     37121       306  POPC      C21            45.3843427880      -52.0897683702      -13.3867357770  MEMB      306             0.0000000000
     37122       306  POPC      O22            44.2092734430      -52.2868174031      -13.2084692497  MEMB      306             0.0000000000
     37123       306  POPC      C22            46.3385099265      -51.7435568645      -12.2798895863  MEMB      306             0.0000000000
     37124       306  POPC      H2R            46.7792856986      -50.7377411429      -12.4483309684  MEMB      306             0.0000000000
     37125       306  POPC      H2S            47.2032043677      -52.4386610212      -12.3386637658  MEMB      306             0.0000000000
     37126       306  POPC      C3             45.0903039763      -54.0903713637      -15.6109963050  MEMB      306             0.0000000000
     37127       306  POPC      HX             44.6249017502      -54.2842187935      -16.6010190842  MEMB      306             0.0000000000
     37128       306  POPC      HY             44.3688241739      -54.4972250773      -14.8705521124  MEMB      306             0.0000000000
     37129       306  POPC      O31            46.2629274939      -54.8924643914      -15.6990544948  MEMB      306             0.0000000000
     37130       306  POPC      C31            46.7854278978      -55.3003664892      -14.5925319792  MEMB      306             0.0000000000
     37131       306  POPC      O32            46.2652770246      -55.2583956700      -13.4880450745  MEMB      306             0.0000000000
     37132       306  POPC      C32            48.1614798665      -56.0051649952      -14.8807911978  MEMB      306             0.0000000000
     37133       306  POPC      H2X            48.0244683786      -56.5798358242      -15.8216962973  MEMB      306             0.0000000000
     37134       306  POPC      H2Y            48.4389632968      -56.6297844072      -14.0049063490  MEMB      306             0.0000000000
     37135       306  POPC      C23            45.7391357178      -51.8231117660      -10.8797223793  MEMB      306             0.0000000000
     37136       306  POPC      H3R            44.9059593981      -51.0881749596      -10.8821809272  MEMB      306             0.0000000000
     37137       306  POPC      H3S            46.4377477776      -51.4424625911      -10.1042430448  MEMB      306             0.0000000000
     37138       306  POPC      C24            45.3096795800      -53.2090827383      -10.3628207828  MEMB      306             0.0000000000
     37139       306  POPC      H4R            46.1382095541      -53.6490265829       -9.7675824048  MEMB      306             0.0000000000
     37140       306  POPC      H4S            44.9660913036      -53.9240263344      -11.1407179306  MEMB      306             0.0000000000
     37141       306  POPC      C25            44.2706694610      -53.0032349902       -9.2474666613  MEMB      306             0.0000000000
     37142       306  POPC      H5R            43.3806983376      -52.4472861265       -9.6124235950  MEMB      306             0.0000000000
     37143       306  POPC      H5S            44.7019698212      -52.4924721220       -8.3600991276  MEMB      306             0.0000000000
     37144       306  POPC      C26            43.8216823687      -54.3980357629       -8.6617258942  MEMB      306             0.0000000000
     37145       306  POPC      H6R            43.5555968145      -54.9868507715       -9.5655047909  MEMB      306             0.0000000000
     37146       306  POPC      H6S            42.8794295938      -54.2409268794       -8.0944546056  MEMB      306             0.0000000000
     37147       306  POPC      C27            44.8387138259      -55.1209784365       -7.6779649026  MEMB      306             0.0000000000
     37148       306  POPC      H7R            45.8193319412      -55.3000444669       -8.1685196313  MEMB      306             0.0000000000
     37149       306  POPC      H7S            44.5451199211      -56.1616139875       -7.4226178228  MEMB      306             0.0000000000
     37150       306  POPC      C28            45.0691060566      -54.3871110248       -6.4064097954  MEMB      306             0.0000000000
     37151       306  POPC      H8R            45.2992055810      -53.3010121732       -6.4484187067  MEMB      306             0.0000000000
     37152       306  POPC      H8S            45.9263904876      -54.8252110225       -5.8519253643  MEMB      306             0.0000000000
     37153       306  POPC      C29            43.9349896718      -54.6125779956       -5.4162524341  MEMB      306             0.0000000000
     37154       306  POPC      H91            43.8539724348      -55.6604313868       -5.0915389094  MEMB      306             0.0000000000
     37155       306  POPC      C210           43.0039310617      -53.6836540161       -5.0471613955  MEMB      306             0.0000000000
     37156       306  POPC      H101           42.3151529037      -54.0045797981       -4.2518061523  MEMB      306             0.0000000000
     37157       306  POPC      C211           42.9627666372      -52.2200200272       -5.5263436121  MEMB      306             0.0000000000
     37158       306  POPC      H11R           41.9847424312      -51.8361018135       -5.1652391470  MEMB      306             0.0000000000
     37159       306  POPC      H11S           43.0454601344      -52.1350037439       -6.6309946412  MEMB      306             0.0000000000
     37160       306  POPC      C212           44.0249167747      -51.4616761807       -4.7380308977  MEMB      306             0.0000000000
     37161       306  POPC      H12R           43.9568651773      -50.4171305241       -5.1103403537  MEMB      306             0.0000000000
     37162       306  POPC      H12S           45.0529219204      -51.8618220804       -4.8699792283  MEMB      306             0.0000000000
     37163       306  POPC      C213           43.8141721409      -51.4626323249       -3.2302339851  MEMB      306             0.0000000000
     37164       306  POPC      H13R           44.1238873850      -52.4758139523       -2.8957795543  MEMB      306             0.0000000000
     37165       306  POPC      H13S           42.7445517520      -51.4117341984       -2.9341886954  MEMB      306             0.0000000000
     37166       306  POPC      C214           44.7371533718      -50.4109296157       -2.4121607631  MEMB      306             0.0000000000
     37167       306  POPC      H14R           44.3455974730      -49.3758463131       -2.5101754243  MEMB      306             0.0000000000
     37168       306  POPC      H14S           45.7587763755      -50.2983676467       -2.8339857232  MEMB      306             0.0000000000
     37169       306  POPC      C215           44.8008503096      -50.5455078871       -0.9236291689  MEMB      306             0.0000000000
     37170       306  POPC      H15R           43.7597983058      -50.5346501773       -0.5357970155  MEMB      306             0.0000000000
     37171       306  POPC      H15S           45.3229493125      -49.6293075157       -0.5739000409  MEMB      306             0.0000000000
     37172       306  POPC      C216           45.5353705604      -51.7208858957       -0.4056173665  MEMB      306             0.0000000000
     37173       306  POPC      H16R           46.6205517540      -51.7029157873       -0.6430641657  MEMB      306             0.0000000000
     37174       306  POPC      H16S           45.2085627295      -52.7039765124       -0.8069281650  MEMB      306             0.0000000000
     37175       306  POPC      C217           45.4100078067      -51.7260838530        1.1608500191  MEMB      306             0.0000000000
     37176       306  POPC      H17R           45.7620810543      -50.7457808916        1.5473360069  MEMB      306             0.0000000000
     37177       306  POPC      H17S           46.0883500698      -52.3871669670        1.7414888501  MEMB      306             0.0000000000
     37178       306  POPC      C218           43.9880588894      -52.0780839311        1.6188358631  MEMB      306             0.0000000000
     37179       306  POPC      H18R           43.7559603703      -53.1207101097        1.3132515814  MEMB      306             0.0000000000
     37180       306  POPC      H18S           43.2110958947      -51.3970810236        1.2103208090  MEMB      306             0.0000000000
     37181       306  POPC      H18T           44.0732184680      -52.0987236109        2.7263745608  MEMB      306             0.0000000000
     37182       306  POPC      C33            49.3193315263      -54.9338483396      -14.9654171698  MEMB      306             0.0000000000
     37183       306  POPC      H3X            48.8015918619      -53.9518620630      -15.0097943658  MEMB      306             0.0000000000
     37184       306  POPC      H3Y            49.9326469121      -54.9778964776      -15.8907415315  MEMB      306             0.0000000000
     37185       306  POPC      C34            50.2280807524      -54.8816415791      -13.7446499898  MEMB      306             0.0000000000
     37186       306  POPC      H4X            50.9643008909      -54.0788379913      -13.9632985190  MEMB      306             0.0000000000
     37187       306  POPC      H4Y            50.8426508245      -55.7971837810      -13.6089764526  MEMB      306             0.0000000000
     37188       306  POPC      C35            49.5335092130      -54.6093648529      -12.3954722270  MEMB      306             0.0000000000
     37189       306  POPC      H5X            48.8042498271      -55.4201711686      -12.1831160234  MEMB      306             0.0000000000
     37190       306  POPC      H5Y            48.9879845649      -53.6513991874      -12.5334064226  MEMB      306             0.0000000000
     37191       306  POPC      C36            50.5416047192      -54.3500188144      -11.2314288425  MEMB      306             0.0000000000
     37192       306  POPC      H6X            51.1952785520      -53.5318142993      -11.6023370158  MEMB      306             0.0000000000
     37193       306  POPC      H6Y            51.2369021301      -55.2128708421      -11.1516240841  MEMB      306             0.0000000000
     37194       306  POPC      C37            50.0155287315      -53.9210913435       -9.9217971468  MEMB      306             0.0000000000
     37195       306  POPC      H7X            50.8368496247      -53.9752415330       -9.1755930964  MEMB      306             0.0000000000
     37196       306  POPC      H7Y            49.2066289280      -54.6047497297       -9.5862177242  MEMB      306             0.0000000000
     37197       306  POPC      C38            49.4621044351      -52.4545493280       -9.8777147109  MEMB      306             0.0000000000
     37198       306  POPC      H8X            48.4650141442      -52.5006557079      -10.3655737351  MEMB      306             0.0000000000
     37199       306  POPC      H8Y            50.2566506549      -51.8709950018      -10.3900445068  MEMB      306             0.0000000000
     37200       306  POPC      C39            49.4042174004      -51.8428220050       -8.4042998607  MEMB      306             0.0000000000
     37201       306  POPC      H9X            49.4734030697      -50.7340704878       -8.3900035038  MEMB      306             0.0000000000
     37202       306  POPC      H9Y            50.3108439674      -52.0887791883       -7.8111264183  MEMB      306             0.0000000000
     37203       306  POPC      C310           48.1054659616      -52.2434886686       -7.5283996543  MEMB      306             0.0000000000
     37204       306  POPC      H10X           48.0276804010      -53.3346807369       -7.7222304075  MEMB      306             0.0000000000
     37205       306  POPC      H10Y           47.3011004478      -51.7048469397       -8.0735437814  MEMB      306             0.0000000000
     37206       306  POPC      C311           48.0404841754      -51.8707425054       -6.0937897822  MEMB      306             0.0000000000
     37207       306  POPC      H11X           46.9999046086      -52.1572345742       -5.8302804242  MEMB      306             0.0000000000
     37208       306  POPC      H11Y           48.1601625707      -50.7713028372       -5.9878166584  MEMB      306             0.0000000000
     37209       306  POPC      C312           49.1341639556      -52.4381208785       -5.1881354072  MEMB      306             0.0000000000
     37210       306  POPC      H12X           49.2060570773      -51.8942738047       -4.2220176564  MEMB      306             0.0000000000
     37211       306  POPC      H12Y           50.1180586181      -52.3577110951       -5.6978477436  MEMB      306             0.0000000000
     37212       306  POPC      C313           48.9670414575      -53.9467076918       -4.8833456504  MEMB      306             0.0000000000
     37213       306  POPC      H13X           49.1929286086      -54.5288088489       -5.8022876377  MEMB      306             0.0000000000
     37214       306  POPC      H13Y           47.9038770967      -54.1535846917       -4.6359509384  MEMB      306             0.0000000000
     37215       306  POPC      C314           49.8671436318      -54.5524460017       -3.8210483605  MEMB      306             0.0000000000
     37216       306  POPC      H14X           50.9209313101      -54.6307903275       -4.1641446860  MEMB      306             0.0000000000
     37217       306  POPC      H14Y           49.6161157535      -55.6003511157       -3.5504927117  MEMB      306             0.0000000000
     37218       306  POPC      C315           49.8962806072      -53.7123702876       -2.4996370713  MEMB      306             0.0000000000
     37219       306  POPC      H15X           50.0811741237      -52.6373438052       -2.7104755632  MEMB      306             0.0000000000
     37220       306  POPC      H15Y           50.8008614609      -54.1093711032       -1.9912618535  MEMB      306             0.0000000000
     37221       306  POPC      C316           48.6611219308      -53.6319914135       -1.6384595017  MEMB      306             0.0000000000
     37222       306  POPC      H16X           47.8494954750      -53.0600663252       -2.1369436266  MEMB      306             0.0000000000
     37223       306  POPC      H16Y           48.8153263497      -53.1085212599       -0.6707201064  MEMB      306             0.0000000000
     37224       306  POPC      H16Z           48.4502109772      -54.6765374289       -1.3241971941  MEMB      306             0.0000000000
     37225       307  POPC      N              54.9601589551       44.4249170346      -19.7846596942  MEMB      307             0.0000000000
     37226       307  POPC      C12            56.1296877004       44.8600739960      -18.8681497361  MEMB      307             0.0000000000
     37227       307  POPC      H12A           56.9055651280       45.2755645461      -19.4940746152  MEMB      307             0.0000000000
     37228       307  POPC      H12B           56.5170319844       43.9881905572      -18.3620039565  MEMB      307             0.0000000000
     37229       307  POPC      C13            53.6941407846       44.1054184453      -18.9426850175  MEMB      307             0.0000000000
     37230       307  POPC      H13A           52.9935653458       43.7302015979      -19.6739896669  MEMB      307             0.0000000000
     37231       307  POPC      H13B           53.8717280845       43.3382424699      -18.2035613705  MEMB      307             0.0000000000
     37232       307  POPC      H13C           53.2896748836       44.9378119826      -18.3859730979  MEMB      307             0.0000000000
     37233       307  POPC      C14            54.6380291349       45.5313906706      -20.7823887883  MEMB      307             0.0000000000
     37234       307  POPC      H14A           55.5468576869       45.8266356537      -21.2856392753  MEMB      307             0.0000000000
     37235       307  POPC      H14B           53.8979118445       45.2041750517      -21.4976205232  MEMB      307             0.0000000000
     37236       307  POPC      H14C           54.1381004624       46.3557269222      -20.2956228722  MEMB      307             0.0000000000
     37237       307  POPC      C15            55.4279682137       43.1372291720      -20.4784199879  MEMB      307             0.0000000000
     37238       307  POPC      H15A           54.6162585251       42.6920095360      -21.0345732880  MEMB      307             0.0000000000
     37239       307  POPC      H15B           55.6762685240       42.4780546659      -19.6597405965  MEMB      307             0.0000000000
     37240       307  POPC      H15C           56.2862534041       43.3621620011      -21.0941730240  MEMB      307             0.0000000000
     37241       307  POPC      C11            55.7904614384       45.8608879100      -17.7602020240  MEMB      307             0.0000000000
     37242       307  POPC      H11A           56.7593730628       46.1749090278      -17.3164430322  MEMB      307             0.0000000000
     37243       307  POPC      H11B           55.1308569684       45.3074421941      -17.0581046025  MEMB      307             0.0000000000
     37244       307  POPC      P              55.8424181652       48.3618332002      -18.5649223177  MEMB      307             0.0000000000
     37245       307  POPC      O13            54.8725975087       49.4310751334      -18.7254351602  MEMB      307             0.0000000000
     37246       307  POPC      O14            56.8070804637       48.2015890283      -19.6912403634  MEMB      307             0.0000000000
     37247       307  POPC      O12            55.0536651822       47.0146048859      -18.1961998903  MEMB      307             0.0000000000
     37248       307  POPC      O11            56.6332194508       48.5988191236      -17.2056970184  MEMB      307             0.0000000000
     37249       307  POPC      C1             58.0544241196       48.4246914340      -17.1357745586  MEMB      307             0.0000000000
     37250       307  POPC      HA             58.6232121320       49.3120549914      -17.4870396938  MEMB      307             0.0000000000
     37251       307  POPC      HB             58.3817904429       47.5703497920      -17.7660544855  MEMB      307             0.0000000000
     37252       307  POPC      C2             58.5072387786       48.1318744445      -15.6800891831  MEMB      307             0.0000000000
     37253       307  POPC      HS             59.6115389925       48.0587250574      -15.7775114543  MEMB      307             0.0000000000
     37254       307  POPC      O21            57.9566443495       46.9337725039      -15.2282433497  MEMB      307             0.0000000000
     37255       307  POPC      C21            58.4529286505       46.3994341515      -14.1685656870  MEMB      307             0.0000000000
     37256       307  POPC      O22            59.4486795125       46.7366764426      -13.5494459902  MEMB      307             0.0000000000
     37257       307  POPC      C22            57.6175267674       45.2300845877      -13.7149274912  MEMB      307             0.0000000000
     37258       307  POPC      H2R            58.1100217824       44.2664871154      -13.9664216664  MEMB      307             0.0000000000
     37259       307  POPC      H2S            56.6316919641       45.2717289417      -14.2255318159  MEMB      307             0.0000000000
     37260       307  POPC      C3             58.0638306780       49.1973442230      -14.6870306598  MEMB      307             0.0000000000
     37261       307  POPC      HX             58.2780552506       50.1218702193      -15.2646813086  MEMB      307             0.0000000000
     37262       307  POPC      HY             58.6370923799       49.0317756873      -13.7498651899  MEMB      307             0.0000000000
     37263       307  POPC      O31            56.6177300525       49.0878647387      -14.5960169733  MEMB      307             0.0000000000
     37264       307  POPC      C31            56.1624019053       48.8443741378      -13.4056301377  MEMB      307             0.0000000000
     37265       307  POPC      O32            56.7535112826       48.5380900147      -12.3885747157  MEMB      307             0.0000000000
     37266       307  POPC      C32            54.6055783789       48.7216963420      -13.6350927983  MEMB      307             0.0000000000
     37267       307  POPC      H2X            54.3864940701       48.1930837473      -14.5874016340  MEMB      307             0.0000000000
     37268       307  POPC      H2Y            54.2941890003       49.7832608798      -13.7372617747  MEMB      307             0.0000000000
     37269       307  POPC      C23            57.3779230004       45.3466863759      -12.2180384993  MEMB      307             0.0000000000
     37270       307  POPC      H3R            56.6316508853       46.1664618791      -12.1447780417  MEMB      307             0.0000000000
     37271       307  POPC      H3S            58.3611896690       45.5835811314      -11.7582679658  MEMB      307             0.0000000000
     37272       307  POPC      C24            56.9664051633       43.9987026578      -11.5295705071  MEMB      307             0.0000000000
     37273       307  POPC      H4R            57.6458693619       43.1347851545      -11.6917302522  MEMB      307             0.0000000000
     37274       307  POPC      H4S            55.9630665750       43.8138104759      -11.9693974689  MEMB      307             0.0000000000
     37275       307  POPC      C25            56.9646079120       44.1887402529      -10.0412200557  MEMB      307             0.0000000000
     37276       307  POPC      H5R            57.9503182227       44.6153008834       -9.7570680916  MEMB      307             0.0000000000
     37277       307  POPC      H5S            56.9310436837       43.2118286965       -9.5131693050  MEMB      307             0.0000000000
     37278       307  POPC      C26            55.8231006938       45.0770165192       -9.4343042446  MEMB      307             0.0000000000
     37279       307  POPC      H6R            54.8444976603       44.5560685748       -9.5069000978  MEMB      307             0.0000000000
     37280       307  POPC      H6S            55.6776086129       45.9229421167      -10.1396856337  MEMB      307             0.0000000000
     37281       307  POPC      C27            56.1090188217       45.5068530071       -7.9698002172  MEMB      307             0.0000000000
     37282       307  POPC      H7R            56.4176950935       44.5891572553       -7.4249388095  MEMB      307             0.0000000000
     37283       307  POPC      H7S            55.1998829324       45.9477728802       -7.5078665264  MEMB      307             0.0000000000
     37284       307  POPC      C28            57.2579623791       46.5446325465       -7.8265534659  MEMB      307             0.0000000000
     37285       307  POPC      H8R            58.1585153825       46.2537825013       -8.4085595614  MEMB      307             0.0000000000
     37286       307  POPC      H8S            57.5012179830       46.6457338903       -6.7472355015  MEMB      307             0.0000000000
     37287       307  POPC      C29            56.7293837757       47.8217380345       -8.3608446189  MEMB      307             0.0000000000
     37288       307  POPC      H91            56.7045409288       47.9697161101       -9.4505627137  MEMB      307             0.0000000000
     37289       307  POPC      C210           56.1726797317       48.9341817751       -7.8228859716  MEMB      307             0.0000000000
     37290       307  POPC      H101           55.8442081088       49.7297246189       -8.5078810430  MEMB      307             0.0000000000
     37291       307  POPC      C211           55.9096140442       49.1494135211       -6.3469041930  MEMB      307             0.0000000000
     37292       307  POPC      H11R           56.4811162143       48.4445637860       -5.7058950820  MEMB      307             0.0000000000
     37293       307  POPC      H11S           54.8551993003       48.8575483208       -6.1536548451  MEMB      307             0.0000000000
     37294       307  POPC      C212           56.1893686336       50.6406457963       -6.0390365712  MEMB      307             0.0000000000
     37295       307  POPC      H12R           55.6796600246       51.2157943684       -6.8413594090  MEMB      307             0.0000000000
     37296       307  POPC      H12S           57.2738416376       50.8688420545       -5.9605142155  MEMB      307             0.0000000000
     37297       307  POPC      C213           55.5178862017       51.0297635856       -4.8150620476  MEMB      307             0.0000000000
     37298       307  POPC      H13R           54.4166485272       50.9201700509       -4.9129703624  MEMB      307             0.0000000000
     37299       307  POPC      H13S           55.7882748610       52.1018001973       -4.7057539661  MEMB      307             0.0000000000
     37300       307  POPC      C214           55.8991217120       50.2545612791       -3.5406078068  MEMB      307             0.0000000000
     37301       307  POPC      H14R           56.9870838250       50.1034995074       -3.3737556868  MEMB      307             0.0000000000
     37302       307  POPC      H14S           55.4985086655       49.2377326886       -3.7403331609  MEMB      307             0.0000000000
     37303       307  POPC      C215           55.2571621476       50.8354890533       -2.2881225388  MEMB      307             0.0000000000
     37304       307  POPC      H15R           54.1596226691       50.7586787654       -2.4424864996  MEMB      307             0.0000000000
     37305       307  POPC      H15S           55.4733813125       51.9246695947       -2.3235619808  MEMB      307             0.0000000000
     37306       307  POPC      C216           55.6746418998       50.1903074955       -0.9198130051  MEMB      307             0.0000000000
     37307       307  POPC      H16R           55.1176887153       50.7647157430       -0.1489834123  MEMB      307             0.0000000000
     37308       307  POPC      H16S           56.7509982336       50.3585717217       -0.7019491998  MEMB      307             0.0000000000
     37309       307  POPC      C217           55.3974630411       48.6757748870       -0.7825341098  MEMB      307             0.0000000000
     37310       307  POPC      H17R           56.2467330125       48.2025385222       -1.3202223601  MEMB      307             0.0000000000
     37311       307  POPC      H17S           54.3894021802       48.3386802586       -1.1058016857  MEMB      307             0.0000000000
     37312       307  POPC      C218           55.6189461127       48.2107990209        0.7207277861  MEMB      307             0.0000000000
     37313       307  POPC      H18R           56.6849159630       48.3765811989        0.9863311406  MEMB      307             0.0000000000
     37314       307  POPC      H18S           55.3013226164       47.1728176804        0.9574362181  MEMB      307             0.0000000000
     37315       307  POPC      H18T           55.0799263543       48.9580468359        1.3415329644  MEMB      307             0.0000000000
     37316       307  POPC      C33            53.8059383298       47.9307059571      -12.5672178830  MEMB      307             0.0000000000
     37317       307  POPC      H3X            54.3472845829       47.0456193799      -12.1698679676  MEMB      307             0.0000000000
     37318       307  POPC      H3Y            52.8325817509       47.6363766596      -13.0147312604  MEMB      307             0.0000000000
     37319       307  POPC      C34            53.5119524478       48.8311581250      -11.3744671832  MEMB      307             0.0000000000
     37320       307  POPC      H4X            53.0094961512       49.7730845773      -11.6820922600  MEMB      307             0.0000000000
     37321       307  POPC      H4Y            54.4780050594       48.9119720788      -10.8317589611  MEMB      307             0.0000000000
     37322       307  POPC      C35            52.4892748584       48.1637525520      -10.3671414159  MEMB      307             0.0000000000
     37323       307  POPC      H5X            51.5492443424       47.9516412555      -10.9200186693  MEMB      307             0.0000000000
     37324       307  POPC      H5Y            52.2002035847       48.8662709071       -9.5564464539  MEMB      307             0.0000000000
     37325       307  POPC      C36            52.9093122195       46.8452293501       -9.7977569296  MEMB      307             0.0000000000
     37326       307  POPC      H6X            53.8189785025       47.0157035267       -9.1831284399  MEMB      307             0.0000000000
     37327       307  POPC      H6Y            53.2257205469       46.1350751812      -10.5914112575  MEMB      307             0.0000000000
     37328       307  POPC      C37            51.8657400790       46.0514476766       -8.8621711573  MEMB      307             0.0000000000
     37329       307  POPC      H7X            52.2437410697       45.0267232627       -8.6587596281  MEMB      307             0.0000000000
     37330       307  POPC      H7Y            50.9887692185       45.8857305959       -9.5238218243  MEMB      307             0.0000000000
     37331       307  POPC      C38            51.4850585152       46.9146692032       -7.6365843822  MEMB      307             0.0000000000
     37332       307  POPC      H8X            50.5853641141       46.4271691818       -7.2039005227  MEMB      307             0.0000000000
     37333       307  POPC      H8Y            51.2200845051       47.9747902312       -7.8372154416  MEMB      307             0.0000000000
     37334       307  POPC      C39            52.4543016832       46.8310090293       -6.4551299533  MEMB      307             0.0000000000
     37335       307  POPC      H9X            52.1455652433       47.6251721198       -5.7421731793  MEMB      307             0.0000000000
     37336       307  POPC      H9Y            53.4794581208       47.0595241564       -6.8172852984  MEMB      307             0.0000000000
     37337       307  POPC      C310           52.4857174907       45.5127947135       -5.7043858119  MEMB      307             0.0000000000
     37338       307  POPC      H10X           52.8391528474       44.7656854928       -6.4468361732  MEMB      307             0.0000000000
     37339       307  POPC      H10Y           51.4050949133       45.3422466709       -5.5107632481  MEMB      307             0.0000000000
     37340       307  POPC      C311           53.3298883942       45.4304006922       -4.3573643481  MEMB      307             0.0000000000
     37341       307  POPC      H11X           52.7632034579       44.7259584388       -3.7116469428  MEMB      307             0.0000000000
     37342       307  POPC      H11Y           53.2385152457       46.4047684075       -3.8314557621  MEMB      307             0.0000000000
     37343       307  POPC      C312           54.7830266078       44.9509348102       -4.5928785899  MEMB      307             0.0000000000
     37344       307  POPC      H12X           55.3296747989       45.7344809965       -5.1599338458  MEMB      307             0.0000000000
     37345       307  POPC      H12Y           54.8411974299       43.9511520200       -5.0738892929  MEMB      307             0.0000000000
     37346       307  POPC      C313           55.5013052050       44.7760612915       -3.1897514793  MEMB      307             0.0000000000
     37347       307  POPC      H13X           55.3182863488       43.7469754713       -2.8131772357  MEMB      307             0.0000000000
     37348       307  POPC      H13Y           55.1489798031       45.5610065632       -2.4868662087  MEMB      307             0.0000000000
     37349       307  POPC      C314           56.9743301386       45.1901904566       -3.2664164570  MEMB      307             0.0000000000
     37350       307  POPC      H14X           57.0737514128       46.2776202818       -3.4711910361  MEMB      307             0.0000000000
     37351       307  POPC      H14Y           57.3533423038       44.7055881032       -4.1915275922  MEMB      307             0.0000000000
     37352       307  POPC      C315           57.7855429182       44.6444516339       -2.0781847973  MEMB      307             0.0000000000
     37353       307  POPC      H15X           57.9465159115       43.5850343494       -2.3715150465  MEMB      307             0.0000000000
     37354       307  POPC      H15Y           57.2412288502       44.7558151485       -1.1160817146  MEMB      307             0.0000000000
     37355       307  POPC      C316           59.1946318087       45.2023741027       -1.9219387570  MEMB      307             0.0000000000
     37356       307  POPC      H16X           59.6729565486       44.9679308300       -2.8969072091  MEMB      307             0.0000000000
     37357       307  POPC      H16Y           59.6949147936       44.5585846714       -1.1672381335  MEMB      307             0.0000000000
     37358       307  POPC      H16Z           59.2374682666       46.2867470397       -1.6839862934  MEMB      307             0.0000000000
     37359       308  POPC      N              55.0663667004      -48.8504427930      -18.1848516974  MEMB      308             0.0000000000
     37360       308  POPC      C12            55.1681714381      -48.0773685589      -19.4761322132  MEMB      308             0.0000000000
     37361       308  POPC      H12A           54.8031456521      -47.1208078328      -19.1324059530  MEMB      308             0.0000000000
     37362       308  POPC      H12B           54.5039233412      -48.4274457328      -20.2524185067  MEMB      308             0.0000000000
     37363       308  POPC      C13            55.5825488328      -50.3064389382      -18.3825459613  MEMB      308             0.0000000000
     37364       308  POPC      H13A           56.6075775199      -50.2777909211      -18.7215080711  MEMB      308             0.0000000000
     37365       308  POPC      H13B           55.7661875411      -50.7430892939      -17.4119722040  MEMB      308             0.0000000000
     37366       308  POPC      H13C           54.9168357281      -50.8745887081      -19.0153429447  MEMB      308             0.0000000000
     37367       308  POPC      C14            55.8030882870      -48.2049213823      -17.0595273888  MEMB      308             0.0000000000
     37368       308  POPC      H14A           55.6508613597      -48.7506178640      -16.1400479353  MEMB      308             0.0000000000
     37369       308  POPC      H14B           56.8634534138      -48.1444696523      -17.2554135213  MEMB      308             0.0000000000
     37370       308  POPC      H14C           55.4461970155      -47.1856428984      -17.0695251002  MEMB      308             0.0000000000
     37371       308  POPC      C15            53.5806894596      -48.9916739912      -17.7799401192  MEMB      308             0.0000000000
     37372       308  POPC      H15A           53.1398847927      -49.5628271263      -18.5836037448  MEMB      308             0.0000000000
     37373       308  POPC      H15B           53.2030858657      -47.9800759486      -17.7579199334  MEMB      308             0.0000000000
     37374       308  POPC      H15C           53.4901519918      -49.6020131751      -16.8935492195  MEMB      308             0.0000000000
     37375       308  POPC      C11            56.4842250159      -47.7410288181      -20.2978825633  MEMB      308             0.0000000000
     37376       308  POPC      H11A           56.3845727994      -47.5226918961      -21.3826495860  MEMB      308             0.0000000000
     37377       308  POPC      H11B           56.9831784406      -48.7322251292      -20.2440665841  MEMB      308             0.0000000000
     37378       308  POPC      P              57.1325146782      -45.3244048310      -19.5583448020  MEMB      308             0.0000000000
     37379       308  POPC      O13            55.8575986210      -45.1159121140      -18.7526828873  MEMB      308             0.0000000000
     37380       308  POPC      O14            57.0449499948      -44.7839976671      -20.9211955634  MEMB      308             0.0000000000
     37381       308  POPC      O12            57.4226593045      -46.8672502208      -19.7232676999  MEMB      308             0.0000000000
     37382       308  POPC      O11            58.4318971313      -44.7160041341      -18.8636291043  MEMB      308             0.0000000000
     37383       308  POPC      C1             59.3513920411      -45.3850247915      -18.0750499051  MEMB      308             0.0000000000
     37384       308  POPC      HA             60.2909052354      -44.8097933393      -17.9310202229  MEMB      308             0.0000000000
     37385       308  POPC      HB             59.6540394503      -46.3580423688      -18.5177263067  MEMB      308             0.0000000000
     37386       308  POPC      C2             58.8059225272      -45.5369228641      -16.6811713660  MEMB      308             0.0000000000
     37387       308  POPC      HS             57.9297159348      -46.2198260740      -16.6962189926  MEMB      308             0.0000000000
     37388       308  POPC      O21            58.3226561347      -44.2541113972      -16.3146183692  MEMB      308             0.0000000000
     37389       308  POPC      C21            57.2704205658      -44.1154310620      -15.5630729975  MEMB      308             0.0000000000
     37390       308  POPC      O22            56.3960222528      -44.9822731151      -15.3811483037  MEMB      308             0.0000000000
     37391       308  POPC      C22            57.1484130426      -42.6845710411      -14.9976801478  MEMB      308             0.0000000000
     37392       308  POPC      H2R            57.1026799648      -41.9673942173      -15.8449624034  MEMB      308             0.0000000000
     37393       308  POPC      H2S            58.1466941560      -42.5148406031      -14.5405721321  MEMB      308             0.0000000000
     37394       308  POPC      C3             59.8155651237      -46.0471914499      -15.6650192723  MEMB      308             0.0000000000
     37395       308  POPC      HX             60.7028929664      -45.3806758884      -15.6127967516  MEMB      308             0.0000000000
     37396       308  POPC      HY             60.0887005569      -47.0609135493      -16.0284550780  MEMB      308             0.0000000000
     37397       308  POPC      O31            59.1867531533      -46.0874169509      -14.3672292768  MEMB      308             0.0000000000
     37398       308  POPC      C31            59.8655083306      -46.7031294362      -13.4560636764  MEMB      308             0.0000000000
     37399       308  POPC      O32            60.9499093930      -47.2804039980      -13.5690389030  MEMB      308             0.0000000000
     37400       308  POPC      C32            59.2135618595      -46.3201994915      -12.1363045700  MEMB      308             0.0000000000
     37401       308  POPC      H2X            58.6971561979      -45.3459916852      -12.2725594968  MEMB      308             0.0000000000
     37402       308  POPC      H2Y            59.9857081290      -46.0983348520      -11.3689151412  MEMB      308             0.0000000000
     37403       308  POPC      C23            56.0327484906      -42.6705695877      -14.0389230094  MEMB      308             0.0000000000
     37404       308  POPC      H3R            55.1376253064      -43.1739176747      -14.4628522996  MEMB      308             0.0000000000
     37405       308  POPC      H3S            55.6817224951      -41.6170515662      -14.0042494306  MEMB      308             0.0000000000
     37406       308  POPC      C24            56.6064074226      -43.1370052171      -12.6374995311  MEMB      308             0.0000000000
     37407       308  POPC      H4R            57.4506808033      -42.5431486788      -12.2265763209  MEMB      308             0.0000000000
     37408       308  POPC      H4S            56.9765579059      -44.1843672876      -12.6559954034  MEMB      308             0.0000000000
     37409       308  POPC      C25            55.5535698577      -43.0482966690      -11.5473718803  MEMB      308             0.0000000000
     37410       308  POPC      H5R            54.6812236025      -43.5871884137      -11.9750736107  MEMB      308             0.0000000000
     37411       308  POPC      H5S            55.2713599195      -41.9740546562      -11.5212468621  MEMB      308             0.0000000000
     37412       308  POPC      C26            55.9549027701      -43.4831700812      -10.1462196459  MEMB      308             0.0000000000
     37413       308  POPC      H6R            56.9549075260      -43.0594763607       -9.9121353470  MEMB      308             0.0000000000
     37414       308  POPC      H6S            55.9951455283      -44.5931394270      -10.1720919114  MEMB      308             0.0000000000
     37415       308  POPC      C27            54.9560251887      -43.1956760566       -8.9721525462  MEMB      308             0.0000000000
     37416       308  POPC      H7R            53.9969970046      -43.2094421995       -9.5328626710  MEMB      308             0.0000000000
     37417       308  POPC      H7S            55.0882475341      -42.2474854654       -8.4084387081  MEMB      308             0.0000000000
     37418       308  POPC      C28            54.8805397350      -44.1530275927       -7.8078947580  MEMB      308             0.0000000000
     37419       308  POPC      H8R            54.2271169888      -43.6624245687       -7.0551215123  MEMB      308             0.0000000000
     37420       308  POPC      H8S            55.8908382102      -44.2374932187       -7.3534909393  MEMB      308             0.0000000000
     37421       308  POPC      C29            54.5329265650      -45.5861958335       -8.1136100949  MEMB      308             0.0000000000
     37422       308  POPC      H91            54.3065416714      -45.8700496080       -9.1519631906  MEMB      308             0.0000000000
     37423       308  POPC      C210           54.4563732949      -46.4654525346       -7.0890309850  MEMB      308             0.0000000000
     37424       308  POPC      H101           54.0759521232      -47.4691481419       -7.3296029638  MEMB      308             0.0000000000
     37425       308  POPC      C211           54.6861972099      -46.1491179694       -5.6436555032  MEMB      308             0.0000000000
     37426       308  POPC      H11R           55.0611754546      -45.1036954839       -5.6720139700  MEMB      308             0.0000000000
     37427       308  POPC      H11S           55.5239923585      -46.7364193631       -5.2106454322  MEMB      308             0.0000000000
     37428       308  POPC      C212           53.3497423483      -46.2376538987       -4.7453984220  MEMB      308             0.0000000000
     37429       308  POPC      H12R           52.7241737631      -47.1480197983       -4.8646418639  MEMB      308             0.0000000000
     37430       308  POPC      H12S           52.8900312388      -45.3916236503       -5.2996722219  MEMB      308             0.0000000000
     37431       308  POPC      C213           53.4734232081      -45.9141115915       -3.2467987218  MEMB      308             0.0000000000
     37432       308  POPC      H13R           53.9784644790      -46.7470264363       -2.7124700668  MEMB      308             0.0000000000
     37433       308  POPC      H13S           52.4246641781      -45.9292373748       -2.8804696153  MEMB      308             0.0000000000
     37434       308  POPC      C214           54.0330409851      -44.4593543638       -3.0046900567  MEMB      308             0.0000000000
     37435       308  POPC      H14R           53.5704873058      -43.7764417156       -3.7489980683  MEMB      308             0.0000000000
     37436       308  POPC      H14S           55.1410194281      -44.4086483066       -3.0689851422  MEMB      308             0.0000000000
     37437       308  POPC      C215           53.6024283793      -44.0922715001       -1.5467366147  MEMB      308             0.0000000000
     37438       308  POPC      H15R           52.5395603504      -44.3591542588       -1.3639630969  MEMB      308             0.0000000000
     37439       308  POPC      H15S           53.7125490058      -42.9888401311       -1.4786656058  MEMB      308             0.0000000000
     37440       308  POPC      C216           54.4244517715      -44.8372450907       -0.5120980795  MEMB      308             0.0000000000
     37441       308  POPC      H16R           55.4493826050      -44.4146159524       -0.5843642081  MEMB      308             0.0000000000
     37442       308  POPC      H16S           54.5821134438      -45.8927600986       -0.8208905015  MEMB      308             0.0000000000
     37443       308  POPC      C217           53.8387013577      -44.7627766881        0.9163789570  MEMB      308             0.0000000000
     37444       308  POPC      H17R           54.1287023787      -45.7297337498        1.3802918468  MEMB      308             0.0000000000
     37445       308  POPC      H17S           52.7320665397      -44.7180457982        0.8287495350  MEMB      308             0.0000000000
     37446       308  POPC      C218           54.3242123172      -43.6915106275        1.8176213266  MEMB      308             0.0000000000
     37447       308  POPC      H18R           53.9129944366      -42.7141217564        1.4860603403  MEMB      308             0.0000000000
     37448       308  POPC      H18S           55.4309585538      -43.5960718474        1.8356504116  MEMB      308             0.0000000000
     37449       308  POPC      H18T           54.0173362679      -43.9392689320        2.8562562798  MEMB      308             0.0000000000
     37450       308  POPC      C33            58.2902811320      -47.4552832770      -11.5804052665  MEMB      308             0.0000000000
     37451       308  POPC      H3X            58.9248591076      -48.3174011381      -11.2831094532  MEMB      308             0.0000000000
     37452       308  POPC      H3Y            57.4988117562      -47.6006090952      -12.3464194899  MEMB      308             0.0000000000
     37453       308  POPC      C34            57.5387459978      -47.1782645507      -10.2524215894  MEMB      308             0.0000000000
     37454       308  POPC      H4X            57.3032157146      -48.1387716188       -9.7461871923  MEMB      308             0.0000000000
     37455       308  POPC      H4Y            56.4879862765      -46.9234712020      -10.5079705966  MEMB      308             0.0000000000
     37456       308  POPC      C35            58.1458314114      -46.3178080239       -9.0769062690  MEMB      308             0.0000000000
     37457       308  POPC      H5X            57.4578336120      -46.0694098252       -8.2406781277  MEMB      308             0.0000000000
     37458       308  POPC      H5Y            58.3299510013      -45.3619411677       -9.6123876219  MEMB      308             0.0000000000
     37459       308  POPC      C36            59.4873014414      -46.8463221147       -8.5667845530  MEMB      308             0.0000000000
     37460       308  POPC      H6X            59.8161455434      -46.0552165905       -7.8594418111  MEMB      308             0.0000000000
     37461       308  POPC      H6Y            60.1520601336      -46.8067457135       -9.4560826562  MEMB      308             0.0000000000
     37462       308  POPC      C37            59.5822233232      -48.2851031978       -7.8839456155  MEMB      308             0.0000000000
     37463       308  POPC      H7X            60.6712677710      -48.3717942647       -7.6819849584  MEMB      308             0.0000000000
     37464       308  POPC      H7Y            59.2621198689      -49.0854054203       -8.5849238211  MEMB      308             0.0000000000
     37465       308  POPC      C38            58.8367572472      -48.4298026769       -6.5449049284  MEMB      308             0.0000000000
     37466       308  POPC      H8X            58.7665688194      -49.5266545764       -6.3827001373  MEMB      308             0.0000000000
     37467       308  POPC      H8Y            57.8390701968      -47.9824140142       -6.7418439032  MEMB      308             0.0000000000
     37468       308  POPC      C39            59.5029413444      -47.5938794855       -5.3905166280  MEMB      308             0.0000000000
     37469       308  POPC      H9X            59.6050551428      -46.5226612184       -5.6668951851  MEMB      308             0.0000000000
     37470       308  POPC      H9Y            60.5430726628      -47.9618759163       -5.2600317078  MEMB      308             0.0000000000
     37471       308  POPC      C310           58.8242364902      -47.6595121786       -4.0478989159  MEMB      308             0.0000000000
     37472       308  POPC      H10X           58.8390541535      -48.6992767298       -3.6567581505  MEMB      308             0.0000000000
     37473       308  POPC      H10Y           57.7917891296      -47.3413357289       -4.3070075145  MEMB      308             0.0000000000
     37474       308  POPC      C311           59.2138632798      -46.6242836670       -3.0269174932  MEMB      308             0.0000000000
     37475       308  POPC      H11X           59.1028899841      -45.6301447775       -3.5103368660  MEMB      308             0.0000000000
     37476       308  POPC      H11Y           60.2969809070      -46.5703953351       -2.7855194587  MEMB      308             0.0000000000
     37477       308  POPC      C312           58.4001500243      -46.8043827553       -1.7111508501  MEMB      308             0.0000000000
     37478       308  POPC      H12X           57.3196798008      -46.5746914448       -1.8300924462  MEMB      308             0.0000000000
     37479       308  POPC      H12Y           58.8371644597      -46.0705326844       -1.0006555449  MEMB      308             0.0000000000
     37480       308  POPC      C313           58.7251473973      -48.1543171054       -0.9802628551  MEMB      308             0.0000000000
     37481       308  POPC      H13X           59.8200877281      -48.2874514839       -1.1133113114  MEMB      308             0.0000000000
     37482       308  POPC      H13Y           58.2484194923      -48.9937548942       -1.5301679486  MEMB      308             0.0000000000
     37483       308  POPC      C314           58.4247746211      -48.1230924242        0.5616661785  MEMB      308             0.0000000000
     37484       308  POPC      H14X           59.0342308754      -47.3377765405        1.0578146410  MEMB      308             0.0000000000
     37485       308  POPC      H14Y           58.5692871278      -49.1318084956        1.0043058591  MEMB      308             0.0000000000
     37486       308  POPC      C315           57.0326999452      -47.6672135845        1.0665222322  MEMB      308             0.0000000000
     37487       308  POPC      H15X           56.9227382113      -46.6408487919        0.6556623114  MEMB      308             0.0000000000
     37488       308  POPC      H15Y           56.9678746034      -47.5705255822        2.1714063825  MEMB      308             0.0000000000
     37489       308  POPC      C316           55.8653693250      -48.4510815615        0.5090984930  MEMB      308             0.0000000000
     37490       308  POPC      H16X           55.7393689259      -49.4729749061        0.9264458920  MEMB      308             0.0000000000
     37491       308  POPC      H16Y           55.8642451970      -48.5771679269       -0.5947243554  MEMB      308             0.0000000000
     37492       308  POPC      H16Z           54.8805760027      -47.9673443830        0.6837453883  MEMB      308             0.0000000000
     37493       309  POPC      N              46.3911157794      -57.6270436032      -19.8976997524  MEMB      309             0.0000000000
     37494       309  POPC      C12            46.9798668710      -58.7287778703      -18.9781558368  MEMB      309             0.0000000000
     37495       309  POPC      H12A           46.9627576245      -58.2321725361      -18.0192552194  MEMB      309             0.0000000000
     37496       309  POPC      H12B           47.9921844179      -58.7817855881      -19.3507192085  MEMB      309             0.0000000000
     37497       309  POPC      C13            45.3489859974      -56.9722656721      -19.0823524856  MEMB      309             0.0000000000
     37498       309  POPC      H13A           44.6965172063      -56.4749936966      -19.7847804794  MEMB      309             0.0000000000
     37499       309  POPC      H13B           44.7275292399      -57.6887178665      -18.5657407169  MEMB      309             0.0000000000
     37500       309  POPC      H13C           45.7636942625      -56.3986371650      -18.2666518349  MEMB      309             0.0000000000
     37501       309  POPC      C14            47.4865365880      -56.6644500886      -20.2476801722  MEMB      309             0.0000000000
     37502       309  POPC      H14A           47.6102673817      -56.0269829528      -19.3847048436  MEMB      309             0.0000000000
     37503       309  POPC      H14B           48.3486758630      -57.1815520446      -20.6422958288  MEMB      309             0.0000000000
     37504       309  POPC      H14C           47.0917838283      -56.0216271798      -21.0205637354  MEMB      309             0.0000000000
     37505       309  POPC      C15            45.9653094173      -58.2585686762      -21.2456893559  MEMB      309             0.0000000000
     37506       309  POPC      H15A           45.1340346563      -58.9251336747      -21.0694127863  MEMB      309             0.0000000000
     37507       309  POPC      H15B           46.7960553569      -58.8086429972      -21.6624381347  MEMB      309             0.0000000000
     37508       309  POPC      H15C           45.6742725429      -57.4923515736      -21.9489738612  MEMB      309             0.0000000000
     37509       309  POPC      C11            46.2130212730      -60.0723981638      -18.9519288688  MEMB      309             0.0000000000
     37510       309  POPC      H11A           46.6505337855      -60.7362402278      -18.1759021318  MEMB      309             0.0000000000
     37511       309  POPC      H11B           46.4737476155      -60.5690137150      -19.9109470204  MEMB      309             0.0000000000
     37512       309  POPC      P              43.7886805301      -60.8820906256      -18.1449789039  MEMB      309             0.0000000000
     37513       309  POPC      O13            43.9972925071      -62.2318053852      -18.6430243139  MEMB      309             0.0000000000
     37514       309  POPC      O14            42.4294447262      -60.3445536540      -18.3219210770  MEMB      309             0.0000000000
     37515       309  POPC      O12            44.8341942001      -59.9189990349      -18.8615101210  MEMB      309             0.0000000000
     37516       309  POPC      O11            44.2202525064      -60.7598177222      -16.6250590638  MEMB      309             0.0000000000
     37517       309  POPC      C1             43.9565017434      -59.4813884903      -16.0221496430  MEMB      309             0.0000000000
     37518       309  POPC      HA             42.9052003503      -59.1500753446      -16.1611392603  MEMB      309             0.0000000000
     37519       309  POPC      HB             44.6093063682      -58.7269374187      -16.5109960123  MEMB      309             0.0000000000
     37520       309  POPC      C2             44.1969121870      -59.4184459373      -14.5178523238  MEMB      309             0.0000000000
     37521       309  POPC      HS             43.9451090770      -58.3795163199      -14.2152938989  MEMB      309             0.0000000000
     37522       309  POPC      O21            45.4924808024      -59.8312355596      -14.2003371692  MEMB      309             0.0000000000
     37523       309  POPC      C21            46.4144110633      -58.8660820877      -14.2089206119  MEMB      309             0.0000000000
     37524       309  POPC      O22            46.2723745507      -57.7159738814      -14.4921470254  MEMB      309             0.0000000000
     37525       309  POPC      C22            47.7821263809      -59.5636229929      -13.7157431829  MEMB      309             0.0000000000
     37526       309  POPC      H2R            48.4989025580      -58.9058597860      -14.2523066516  MEMB      309             0.0000000000
     37527       309  POPC      H2S            47.9074237932      -60.5187514394      -14.2692328468  MEMB      309             0.0000000000
     37528       309  POPC      C3             43.3375026892      -60.3508617538      -13.6823429488  MEMB      309             0.0000000000
     37529       309  POPC      HX             43.5181034628      -61.3628704740      -14.1037009433  MEMB      309             0.0000000000
     37530       309  POPC      HY             42.2413232984      -60.2230855255      -13.8103477457  MEMB      309             0.0000000000
     37531       309  POPC      O31            43.5819844210      -60.3717662799      -12.2817488996  MEMB      309             0.0000000000
     37532       309  POPC      C31            43.0973447110      -59.3493442986      -11.5647662069  MEMB      309             0.0000000000
     37533       309  POPC      O32            42.3375244637      -58.4621470282      -12.0252585754  MEMB      309             0.0000000000
     37534       309  POPC      C32            43.6268253674      -59.3278232728      -10.0998898753  MEMB      309             0.0000000000
     37535       309  POPC      H2X            43.9720288637      -58.3079659370       -9.8259445257  MEMB      309             0.0000000000
     37536       309  POPC      H2Y            44.4856283736      -60.0201780931       -9.9678942643  MEMB      309             0.0000000000
     37537       309  POPC      C23            48.0106159353      -59.5970771211      -12.2401879498  MEMB      309             0.0000000000
     37538       309  POPC      H3R            49.0663176506      -59.9311682919      -12.1496460802  MEMB      309             0.0000000000
     37539       309  POPC      H3S            47.3840399275      -60.3083811357      -11.6607310312  MEMB      309             0.0000000000
     37540       309  POPC      C24            48.0118733125      -58.1239742552      -11.6295348446  MEMB      309             0.0000000000
     37541       309  POPC      H4R            46.9820466404      -57.8026603772      -11.3639497308  MEMB      309             0.0000000000
     37542       309  POPC      H4S            48.4500699559      -57.4711599212      -12.4144797657  MEMB      309             0.0000000000
     37543       309  POPC      C25            48.8114231029      -57.9386666409      -10.3251735240  MEMB      309             0.0000000000
     37544       309  POPC      H5R            48.8685578640      -56.8674038318      -10.0362915816  MEMB      309             0.0000000000
     37545       309  POPC      H5S            49.8549504534      -58.2133547431      -10.5895947259  MEMB      309             0.0000000000
     37546       309  POPC      C26            48.3074945461      -58.7048510304       -9.0239375461  MEMB      309             0.0000000000
     37547       309  POPC      H6R            48.9124700615      -58.4953084536       -8.1159640553  MEMB      309             0.0000000000
     37548       309  POPC      H6S            48.5715711867      -59.7702101963       -9.1959680301  MEMB      309             0.0000000000
     37549       309  POPC      C27            46.8313824729      -58.6956597078       -8.5726707573  MEMB      309             0.0000000000
     37550       309  POPC      H7R            46.3951741526      -59.5161767898       -9.1815999111  MEMB      309             0.0000000000
     37551       309  POPC      H7S            46.3070331750      -57.7476551740       -8.8189761228  MEMB      309             0.0000000000
     37552       309  POPC      C28            46.5935363208      -59.2566039135       -7.1597967229  MEMB      309             0.0000000000
     37553       309  POPC      H8R            45.5242366526      -59.2080304560       -6.8622061266  MEMB      309             0.0000000000
     37554       309  POPC      H8S            47.0626876319      -58.5743019071       -6.4190654063  MEMB      309             0.0000000000
     37555       309  POPC      C29            47.1327984025      -60.6604454924       -6.8140799273  MEMB      309             0.0000000000
     37556       309  POPC      H91            46.5945803875      -61.4855921065       -7.3034204827  MEMB      309             0.0000000000
     37557       309  POPC      C210           48.1344086827      -61.0394296915       -6.0508841124  MEMB      309             0.0000000000
     37558       309  POPC      H101           48.4190719375      -62.1017883988       -6.0318922769  MEMB      309             0.0000000000
     37559       309  POPC      C211           49.1270419552      -60.1991669406       -5.2769882412  MEMB      309             0.0000000000
     37560       309  POPC      H11R           48.9873335201      -59.1341241848       -5.5606896257  MEMB      309             0.0000000000
     37561       309  POPC      H11S           50.2203685359      -60.3735119265       -5.3695167576  MEMB      309             0.0000000000
     37562       309  POPC      C212           48.9990971119      -60.3114928428       -3.7718269625  MEMB      309             0.0000000000
     37563       309  POPC      H12R           49.5366497329      -61.2108057157       -3.4022396517  MEMB      309             0.0000000000
     37564       309  POPC      H12S           47.9312693677      -60.2652807428       -3.4686282633  MEMB      309             0.0000000000
     37565       309  POPC      C213           49.5750583929      -59.1743139460       -2.9443781917  MEMB      309             0.0000000000
     37566       309  POPC      H13R           49.0596994035      -58.2284260678       -3.2164486219  MEMB      309             0.0000000000
     37567       309  POPC      H13S           50.6581456043      -59.1723323749       -3.1918439185  MEMB      309             0.0000000000
     37568       309  POPC      C214           49.4619032995      -59.1986015080       -1.3401100358  MEMB      309             0.0000000000
     37569       309  POPC      H14R           50.1634959646      -58.4069958064       -1.0003303947  MEMB      309             0.0000000000
     37570       309  POPC      H14S           49.9123456960      -60.1228448646       -0.9191625407  MEMB      309             0.0000000000
     37571       309  POPC      C215           48.1097985911      -58.9467428808       -0.6981675424  MEMB      309             0.0000000000
     37572       309  POPC      H15R           47.9698811416      -59.8476477575       -0.0632544107  MEMB      309             0.0000000000
     37573       309  POPC      H15S           47.3791619162      -59.0981043099       -1.5213218427  MEMB      309             0.0000000000
     37574       309  POPC      C216           47.9261300071      -57.6888631887        0.1384109869  MEMB      309             0.0000000000
     37575       309  POPC      H16R           48.8520006606      -57.6886576892        0.7524829530  MEMB      309             0.0000000000
     37576       309  POPC      H16S           47.1211077717      -57.6092797897        0.8999418416  MEMB      309             0.0000000000
     37577       309  POPC      C217           47.8802012770      -56.4276290798       -0.7338112029  MEMB      309             0.0000000000
     37578       309  POPC      H17R           46.9877232111      -56.5558020871       -1.3829456051  MEMB      309             0.0000000000
     37579       309  POPC      H17S           48.7263758246      -56.5499196055       -1.4432853977  MEMB      309             0.0000000000
     37580       309  POPC      C218           47.7068928261      -55.1217118449       -0.0555771531  MEMB      309             0.0000000000
     37581       309  POPC      H18R           48.6800572520      -54.6908022996        0.2631521137  MEMB      309             0.0000000000
     37582       309  POPC      H18S           47.2450303353      -55.1448805295        0.9546049528  MEMB      309             0.0000000000
     37583       309  POPC      H18T           47.2816824785      -54.3714309496       -0.7560019172  MEMB      309             0.0000000000
     37584       309  POPC      C33            42.3949892084      -59.7447246269       -9.2712285390  MEMB      309             0.0000000000
     37585       309  POPC      H3X            42.0017211770      -60.7310343313       -9.5981143576  MEMB      309             0.0000000000
     37586       309  POPC      H3Y            41.5403970864      -59.0592112139       -9.4557940141  MEMB      309             0.0000000000
     37587       309  POPC      C34            42.6834724617      -59.8306816707       -7.7744654450  MEMB      309             0.0000000000
     37588       309  POPC      H4X            43.3211401966      -58.9768168386       -7.4604339067  MEMB      309             0.0000000000
     37589       309  POPC      H4Y            43.2143997859      -60.7980073488       -7.6451665475  MEMB      309             0.0000000000
     37590       309  POPC      C35            41.4181625497      -59.7495072381       -6.8710152809  MEMB      309             0.0000000000
     37591       309  POPC      H5X            40.6628414582      -60.4723407020       -7.2469442639  MEMB      309             0.0000000000
     37592       309  POPC      H5Y            40.8520081734      -58.8094374932       -7.0443900099  MEMB      309             0.0000000000
     37593       309  POPC      C36            41.5342506300      -60.0179479573       -5.3749665666  MEMB      309             0.0000000000
     37594       309  POPC      H6X            40.5749465935      -59.7963976940       -4.8602116391  MEMB      309             0.0000000000
     37595       309  POPC      H6Y            42.3023733997      -59.3565805740       -4.9201028354  MEMB      309             0.0000000000
     37596       309  POPC      C37            41.9540025749      -61.4244865289       -5.1000763906  MEMB      309             0.0000000000
     37597       309  POPC      H7X            43.0534496610      -61.4549869231       -5.2569428077  MEMB      309             0.0000000000
     37598       309  POPC      H7Y            41.6249340550      -62.0692617170       -5.9428687069  MEMB      309             0.0000000000
     37599       309  POPC      C38            41.4826866935      -62.0813518720       -3.8090187341  MEMB      309             0.0000000000
     37600       309  POPC      H8X            41.7925291360      -63.1442585344       -3.9014757168  MEMB      309             0.0000000000
     37601       309  POPC      H8Y            40.3772325401      -61.9871000207       -3.7506392668  MEMB      309             0.0000000000
     37602       309  POPC      C39            42.1036333403      -61.5475727181       -2.4714024272  MEMB      309             0.0000000000
     37603       309  POPC      H9X            41.6702934950      -62.1703076940       -1.6597764001  MEMB      309             0.0000000000
     37604       309  POPC      H9Y            41.9325212893      -60.4508874469       -2.4232041110  MEMB      309             0.0000000000
     37605       309  POPC      C310           43.5875013501      -61.8850908722       -2.3130907384  MEMB      309             0.0000000000
     37606       309  POPC      H10X           44.2174175863      -61.4661866018       -3.1267522153  MEMB      309             0.0000000000
     37607       309  POPC      H10Y           43.6307123818      -62.9947542455       -2.2799138557  MEMB      309             0.0000000000
     37608       309  POPC      C311           44.2409579994      -61.4622038825       -0.9315994877  MEMB      309             0.0000000000
     37609       309  POPC      H11X           45.3504339836      -61.4221212996       -0.9737596402  MEMB      309             0.0000000000
     37610       309  POPC      H11Y           43.9064963067      -62.1370528581       -0.1148780587  MEMB      309             0.0000000000
     37611       309  POPC      C312           43.8346318836      -60.0015666603       -0.5435410164  MEMB      309             0.0000000000
     37612       309  POPC      H12X           42.7318153035      -59.8839137665       -0.4781631723  MEMB      309             0.0000000000
     37613       309  POPC      H12Y           44.3049060760      -59.3408710673       -1.3029125648  MEMB      309             0.0000000000
     37614       309  POPC      C313           44.4818674291      -59.4512985945        0.7474371282  MEMB      309             0.0000000000
     37615       309  POPC      H13X           44.6111236134      -58.3522764564        0.8462514898  MEMB      309             0.0000000000
     37616       309  POPC      H13Y           45.5247364170      -59.8311051333        0.6975151046  MEMB      309             0.0000000000
     37617       309  POPC      C314           43.7825017257      -59.9289309873        2.0196790034  MEMB      309             0.0000000000
     37618       309  POPC      H14X           44.3031049068      -59.5912899237        2.9412505724  MEMB      309             0.0000000000
     37619       309  POPC      H14Y           43.7850954033      -61.0355221120        1.9208343523  MEMB      309             0.0000000000
     37620       309  POPC      C315           42.3842095123      -59.2022925083        2.2304031088  MEMB      309             0.0000000000
     37621       309  POPC      H15X           41.9317191988      -59.5338815323        3.1893732025  MEMB      309             0.0000000000
     37622       309  POPC      H15Y           41.6396031014      -59.5051006572        1.4634685912  MEMB      309             0.0000000000
     37623       309  POPC      C316           42.3531829079      -57.6516323270        2.2979985003  MEMB      309             0.0000000000
     37624       309  POPC      H16X           41.3197777663      -57.3178099931        2.5324285033  MEMB      309             0.0000000000
     37625       309  POPC      H16Y           42.6690694260      -57.1476917105        1.3596044806  MEMB      309             0.0000000000
     37626       309  POPC      H16Z           42.9773146982      -57.2250027871        3.1121026865  MEMB      309             0.0000000000
     37627       310  POPC      N             -54.4562210396       51.1015047836      -21.1722728328  MEMB      310             0.0000000000
     37628       310  POPC      C12           -54.7144271788       49.8100605447      -20.4886497891  MEMB      310             0.0000000000
     37629       310  POPC      H12A          -53.9998384869       49.1130291064      -20.9008513577  MEMB      310             0.0000000000
     37630       310  POPC      H12B          -55.7473548836       49.5904422280      -20.7149861896  MEMB      310             0.0000000000
     37631       310  POPC      C13           -55.3996931957       52.1739562445      -20.6894692178  MEMB      310             0.0000000000
     37632       310  POPC      H13A          -55.0561471723       53.0564195579      -21.2087326516  MEMB      310             0.0000000000
     37633       310  POPC      H13B          -56.3769924583       51.9043303413      -21.0617431568  MEMB      310             0.0000000000
     37634       310  POPC      H13C          -55.4301373928       52.2832238834      -19.6154423873  MEMB      310             0.0000000000
     37635       310  POPC      C14           -52.9801764645       51.5284074449      -21.0621814643  MEMB      310             0.0000000000
     37636       310  POPC      H14A          -52.4054318517       50.6415012991      -21.2845916411  MEMB      310             0.0000000000
     37637       310  POPC      H14B          -52.6122880560       52.1353299608      -21.8762473446  MEMB      310             0.0000000000
     37638       310  POPC      H14C          -52.7853178779       52.0440514473      -20.1334503328  MEMB      310             0.0000000000
     37639       310  POPC      C15           -54.7820252640       50.7846373155      -22.6394296242  MEMB      310             0.0000000000
     37640       310  POPC      H15A          -54.7023174967       51.5789103475      -23.3668751904  MEMB      310             0.0000000000
     37641       310  POPC      H15B          -55.7896979861       50.3960729461      -22.6430961564  MEMB      310             0.0000000000
     37642       310  POPC      H15C          -54.1917106907       49.9766068023      -23.0456503798  MEMB      310             0.0000000000
     37643       310  POPC      C11           -54.4889578226       49.7750819073      -18.9811766902  MEMB      310             0.0000000000
     37644       310  POPC      H11A          -53.4109513313       50.0421306497      -18.9510439091  MEMB      310             0.0000000000
     37645       310  POPC      H11B          -54.6897841273       48.7206542594      -18.6945200314  MEMB      310             0.0000000000
     37646       310  POPC      P             -55.7750021555       50.3055746616      -16.7353379081  MEMB      310             0.0000000000
     37647       310  POPC      O13           -56.6517701824       49.1689608350      -16.9466338911  MEMB      310             0.0000000000
     37648       310  POPC      O14           -56.3741172793       51.5249641370      -16.2026074321  MEMB      310             0.0000000000
     37649       310  POPC      O12           -55.1551855156       50.6989812907      -18.1606779293  MEMB      310             0.0000000000
     37650       310  POPC      O11           -54.4792903726       49.8016510844      -15.9215632193  MEMB      310             0.0000000000
     37651       310  POPC      C1            -53.4681939232       50.7352916071      -15.4598435379  MEMB      310             0.0000000000
     37652       310  POPC      HA            -53.9358575216       51.3179554474      -14.6375818132  MEMB      310             0.0000000000
     37653       310  POPC      HB            -53.2118393108       51.3886977630      -16.3210424899  MEMB      310             0.0000000000
     37654       310  POPC      C2            -52.2010750293       49.8503591145      -14.9479810683  MEMB      310             0.0000000000
     37655       310  POPC      HS            -52.0305220052       49.0505026433      -15.6999536413  MEMB      310             0.0000000000
     37656       310  POPC      O21           -52.5347737261       49.2319688466      -13.7086911497  MEMB      310             0.0000000000
     37657       310  POPC      C21           -51.5717340016       48.5063085602      -13.0984947425  MEMB      310             0.0000000000
     37658       310  POPC      O22           -50.6327858147       48.0097474721      -13.7336628183  MEMB      310             0.0000000000
     37659       310  POPC      C22           -51.8208982285       48.4275584353      -11.6189321819  MEMB      310             0.0000000000
     37660       310  POPC      H2R           -51.4832341444       47.4305897607      -11.2634642658  MEMB      310             0.0000000000
     37661       310  POPC      H2S           -52.8695433284       48.6676559136      -11.3414112063  MEMB      310             0.0000000000
     37662       310  POPC      C3            -50.9777730813       50.8408201471      -14.6997875061  MEMB      310             0.0000000000
     37663       310  POPC      HX            -50.7881358455       51.3223306840      -15.6828980732  MEMB      310             0.0000000000
     37664       310  POPC      HY            -50.0574525115       50.3218717642      -14.3562417573  MEMB      310             0.0000000000
     37665       310  POPC      O31           -51.4288614163       51.7385785449      -13.7803035031  MEMB      310             0.0000000000
     37666       310  POPC      C31           -50.7034587330       52.8543488950      -13.6418917621  MEMB      310             0.0000000000
     37667       310  POPC      O32           -49.5768320887       53.0284977036      -14.1294392412  MEMB      310             0.0000000000
     37668       310  POPC      C32           -51.4194426469       53.8826566012      -12.8640416042  MEMB      310             0.0000000000
     37669       310  POPC      H2X           -50.9394988335       54.8725036004      -13.0195345381  MEMB      310             0.0000000000
     37670       310  POPC      H2Y           -51.2774176036       53.6256449581      -11.7925496320  MEMB      310             0.0000000000
     37671       310  POPC      C23           -50.8553116644       49.4858955169      -10.9082314116  MEMB      310             0.0000000000
     37672       310  POPC      H3R           -51.2698216857       50.4755435570      -11.1965004172  MEMB      310             0.0000000000
     37673       310  POPC      H3S           -49.8440771221       49.3052125071      -11.3314089579  MEMB      310             0.0000000000
     37674       310  POPC      C24           -50.7194879921       49.4401483583       -9.3407152131  MEMB      310             0.0000000000
     37675       310  POPC      H4R           -50.2796811200       48.5144525494       -8.9117875970  MEMB      310             0.0000000000
     37676       310  POPC      H4S           -51.7159219419       49.4347984353       -8.8493780271  MEMB      310             0.0000000000
     37677       310  POPC      C25           -49.9928696339       50.7690582120       -8.8749855412  MEMB      310             0.0000000000
     37678       310  POPC      H5R           -50.5118015791       51.6248562358       -9.3573129943  MEMB      310             0.0000000000
     37679       310  POPC      H5S           -48.9682880688       50.8294515834       -9.3003156566  MEMB      310             0.0000000000
     37680       310  POPC      C26           -49.7787103540       50.6992540764       -7.3641109188  MEMB      310             0.0000000000
     37681       310  POPC      H6R           -49.3961158997       49.7037394978       -7.0528347739  MEMB      310             0.0000000000
     37682       310  POPC      H6S           -50.7916936634       50.7133159350       -6.9080542343  MEMB      310             0.0000000000
     37683       310  POPC      C27           -48.9717316941       51.8521484911       -6.8469268619  MEMB      310             0.0000000000
     37684       310  POPC      H7R           -49.2491571320       52.8135211323       -7.3297507528  MEMB      310             0.0000000000
     37685       310  POPC      H7S           -47.9449122092       51.4598864568       -7.0084607278  MEMB      310             0.0000000000
     37686       310  POPC      C28           -49.1545909200       52.0797792123       -5.3297807030  MEMB      310             0.0000000000
     37687       310  POPC      H8R           -48.3886311551       52.8229046098       -5.0209256659  MEMB      310             0.0000000000
     37688       310  POPC      H8S           -48.8633753081       51.1422630627       -4.8096096060  MEMB      310             0.0000000000
     37689       310  POPC      C29           -50.5671020746       52.6238590733       -4.9801870040  MEMB      310             0.0000000000
     37690       310  POPC      H91           -50.7968510739       53.6097141966       -5.4106567945  MEMB      310             0.0000000000
     37691       310  POPC      C210          -51.4370738748       52.0349866834       -4.1203045339  MEMB      310             0.0000000000
     37692       310  POPC      H101          -52.3995028206       52.5651286430       -4.0685345399  MEMB      310             0.0000000000
     37693       310  POPC      C211          -51.1761283604       50.7686222638       -3.3185537763  MEMB      310             0.0000000000
     37694       310  POPC      H11R          -51.7515215760       50.9451821466       -2.3847059619  MEMB      310             0.0000000000
     37695       310  POPC      H11S          -50.0829555141       50.6457082231       -3.1630356137  MEMB      310             0.0000000000
     37696       310  POPC      C212          -51.5264043636       49.4139594194       -4.0140828452  MEMB      310             0.0000000000
     37697       310  POPC      H12R          -51.1715859130       49.3338793252       -5.0638501541  MEMB      310             0.0000000000
     37698       310  POPC      H12S          -52.6325219788       49.3583061174       -4.1019868690  MEMB      310             0.0000000000
     37699       310  POPC      C213          -51.0906751941       48.0729936580       -3.3449233138  MEMB      310             0.0000000000
     37700       310  POPC      H13R          -51.6985370372       47.2608260743       -3.7979230421  MEMB      310             0.0000000000
     37701       310  POPC      H13S          -51.2975387800       48.0426526147       -2.2537729293  MEMB      310             0.0000000000
     37702       310  POPC      C214          -49.5932199749       47.7337438131       -3.5579727522  MEMB      310             0.0000000000
     37703       310  POPC      H14R          -49.0206430470       48.6824450836       -3.4777091841  MEMB      310             0.0000000000
     37704       310  POPC      H14S          -49.3845850424       47.3097806623       -4.5634818554  MEMB      310             0.0000000000
     37705       310  POPC      C215          -49.1541106534       46.7812985149       -2.4950911191  MEMB      310             0.0000000000
     37706       310  POPC      H15R          -48.1143402379       46.4772899529       -2.7416210686  MEMB      310             0.0000000000
     37707       310  POPC      H15S          -49.6754563704       45.8053431303       -2.5952442495  MEMB      310             0.0000000000
     37708       310  POPC      C216          -49.0286649811       47.2552370772       -0.9808929082  MEMB      310             0.0000000000
     37709       310  POPC      H16R          -50.0500290937       47.3865657637       -0.5638927459  MEMB      310             0.0000000000
     37710       310  POPC      H16S          -48.4651561269       48.2045041946       -1.1060766888  MEMB      310             0.0000000000
     37711       310  POPC      C217          -48.3891976534       46.1996776331       -0.0930945772  MEMB      310             0.0000000000
     37712       310  POPC      H17R          -47.4815387288       45.7024104183       -0.4970764280  MEMB      310             0.0000000000
     37713       310  POPC      H17S          -49.2329825633       45.4877181224        0.0312509441  MEMB      310             0.0000000000
     37714       310  POPC      C218          -48.1096072939       46.7134314324        1.3152679706  MEMB      310             0.0000000000
     37715       310  POPC      H18R          -49.0823393141       47.0396825725        1.7415004016  MEMB      310             0.0000000000
     37716       310  POPC      H18S          -47.4822261307       47.6300680414        1.2931040998  MEMB      310             0.0000000000
     37717       310  POPC      H18T          -47.7156641914       45.9327941254        2.0006407771  MEMB      310             0.0000000000
     37718       310  POPC      C33           -52.9254993702       53.9449864165      -13.1649285760  MEMB      310             0.0000000000
     37719       310  POPC      H3X           -53.3217216912       52.9072017352      -13.1467126701  MEMB      310             0.0000000000
     37720       310  POPC      H3Y           -53.0904900855       54.3230175151      -14.1965253898  MEMB      310             0.0000000000
     37721       310  POPC      C34           -53.8140519736       54.7520695691      -12.2162963553  MEMB      310             0.0000000000
     37722       310  POPC      H4X           -54.8467058439       54.4650464101      -12.5088108371  MEMB      310             0.0000000000
     37723       310  POPC      H4Y           -53.4785500413       55.7843185072      -12.4534083268  MEMB      310             0.0000000000
     37724       310  POPC      C35           -53.6452220111       54.5266182485      -10.7091625665  MEMB      310             0.0000000000
     37725       310  POPC      H5X           -54.4543571264       55.1078507893      -10.2174410989  MEMB      310             0.0000000000
     37726       310  POPC      H5Y           -52.6648405976       54.9170362597      -10.3616767821  MEMB      310             0.0000000000
     37727       310  POPC      C36           -53.7659312626       53.0394064448      -10.2670685372  MEMB      310             0.0000000000
     37728       310  POPC      H6X           -53.0045234170       52.4147594491      -10.7812620228  MEMB      310             0.0000000000
     37729       310  POPC      H6Y           -54.7893590849       52.7138160211      -10.5515103973  MEMB      310             0.0000000000
     37730       310  POPC      C37           -53.6598255396       52.8067676419       -8.7812503360  MEMB      310             0.0000000000
     37731       310  POPC      H7X           -52.6612484260       53.0137262601       -8.3404183398  MEMB      310             0.0000000000
     37732       310  POPC      H7Y           -53.7440598631       51.6991208532       -8.7998042305  MEMB      310             0.0000000000
     37733       310  POPC      C38           -54.6882604732       53.4708052383       -7.8578842861  MEMB      310             0.0000000000
     37734       310  POPC      H8X           -55.6815567592       53.3907547322       -8.3490828902  MEMB      310             0.0000000000
     37735       310  POPC      H8Y           -54.4269031704       54.5505787044       -7.8680063730  MEMB      310             0.0000000000
     37736       310  POPC      C39           -54.7067967560       52.9853062790       -6.4202274969  MEMB      310             0.0000000000
     37737       310  POPC      H9X           -53.7481007990       53.3492746218       -5.9927353099  MEMB      310             0.0000000000
     37738       310  POPC      H9Y           -54.7373703668       51.8911807702       -6.6106885717  MEMB      310             0.0000000000
     37739       310  POPC      C310          -55.9650299156       53.4591602725       -5.6905531104  MEMB      310             0.0000000000
     37740       310  POPC      H10X          -56.8466568637       53.1997659261       -6.3148687546  MEMB      310             0.0000000000
     37741       310  POPC      H10Y          -55.8764221894       54.5377476716       -5.4393192111  MEMB      310             0.0000000000
     37742       310  POPC      C311          -56.2491734151       52.7636212693       -4.3610644808  MEMB      310             0.0000000000
     37743       310  POPC      H11X          -57.2981339727       52.8360604340       -4.0022396187  MEMB      310             0.0000000000
     37744       310  POPC      H11Y          -55.6412068001       53.3601646936       -3.6477394854  MEMB      310             0.0000000000
     37745       310  POPC      C312          -55.8466309743       51.2690968722       -4.2352311606  MEMB      310             0.0000000000
     37746       310  POPC      H12X          -54.7607886652       51.1006801975       -4.3992528359  MEMB      310             0.0000000000
     37747       310  POPC      H12Y          -56.5004986443       50.7290483863       -4.9529532419  MEMB      310             0.0000000000
     37748       310  POPC      C313          -56.0847726607       50.7010485707       -2.8386540953  MEMB      310             0.0000000000
     37749       310  POPC      H13X          -55.6604411171       49.6892992285       -3.0136605376  MEMB      310             0.0000000000
     37750       310  POPC      H13Y          -57.1816749717       50.5383184330       -2.7704984317  MEMB      310             0.0000000000
     37751       310  POPC      C314          -55.4286710487       51.4213740162       -1.6705011158  MEMB      310             0.0000000000
     37752       310  POPC      H14X          -56.0681784104       52.2120193308       -1.2230284893  MEMB      310             0.0000000000
     37753       310  POPC      H14Y          -54.5267584426       51.8979026368       -2.1107226758  MEMB      310             0.0000000000
     37754       310  POPC      C315          -55.0141356071       50.3970604352       -0.5970533465  MEMB      310             0.0000000000
     37755       310  POPC      H15X          -54.4630839242       50.9294629940        0.2074395852  MEMB      310             0.0000000000
     37756       310  POPC      H15Y          -54.2319814448       49.7127176650       -0.9897757411  MEMB      310             0.0000000000
     37757       310  POPC      C316          -56.1565288052       49.5566864062        0.0184986840  MEMB      310             0.0000000000
     37758       310  POPC      H16X          -57.0063047251       50.2707488939       -0.0296256761  MEMB      310             0.0000000000
     37759       310  POPC      H16Y          -55.8805739055       49.3925384044        1.0820906912  MEMB      310             0.0000000000
     37760       310  POPC      H16Z          -56.4194617262       48.6046793204       -0.4902931696  MEMB      310             0.0000000000
     37761       311  POPC      N              56.8190605751      -55.5577135865      -21.2748026598  MEMB      311             0.0000000000
     37762       311  POPC      C12            56.2287374625      -54.3824293488      -20.5360965679  MEMB      311             0.0000000000
     37763       311  POPC      H12A           55.1627139546      -54.5398522809      -20.4639031913  MEMB      311             0.0000000000
     37764       311  POPC      H12B           56.4388800255      -53.5264217984      -21.1601887626  MEMB      311             0.0000000000
     37765       311  POPC      C13            56.4263011270      -56.7666761885      -20.5305547391  MEMB      311             0.0000000000
     37766       311  POPC      H13A           55.3885023316      -56.9633607729      -20.3054130933  MEMB      311             0.0000000000
     37767       311  POPC      H13B           56.9153174450      -57.6235043349      -20.9699956798  MEMB      311             0.0000000000
     37768       311  POPC      H13C           56.8393524592      -56.6138440188      -19.5444356026  MEMB      311             0.0000000000
     37769       311  POPC      C14            56.0814754167      -55.7349117208      -22.5849384269  MEMB      311             0.0000000000
     37770       311  POPC      H14A           56.0454738225      -54.8239578368      -23.1639608006  MEMB      311             0.0000000000
     37771       311  POPC      H14B           56.7056973897      -56.5057927858      -23.0121265001  MEMB      311             0.0000000000
     37772       311  POPC      H14C           55.0643469302      -56.0650254440      -22.4336950623  MEMB      311             0.0000000000
     37773       311  POPC      C15            58.2793845430      -55.3831002282      -21.5067073069  MEMB      311             0.0000000000
     37774       311  POPC      H15A           58.8500611123      -55.5546825512      -20.6059923067  MEMB      311             0.0000000000
     37775       311  POPC      H15B           58.5653049037      -54.4143150134      -21.8889437639  MEMB      311             0.0000000000
     37776       311  POPC      H15C           58.5383891487      -56.1247540097      -22.2478324425  MEMB      311             0.0000000000
     37777       311  POPC      C11            56.6274609609      -54.2260668224      -19.0842048872  MEMB      311             0.0000000000
     37778       311  POPC      H11A           56.5977682727      -53.1832981778      -18.7020099831  MEMB      311             0.0000000000
     37779       311  POPC      H11B           57.7344742571      -54.3158503048      -19.0562503928  MEMB      311             0.0000000000
     37780       311  POPC      P              56.0430658613      -54.7249851461      -16.6775429914  MEMB      311             0.0000000000
     37781       311  POPC      O13            55.0122943147      -53.7193733415      -16.3787565741  MEMB      311             0.0000000000
     37782       311  POPC      O14            57.4378778497      -54.3263053446      -16.3969899490  MEMB      311             0.0000000000
     37783       311  POPC      O12            55.9973730953      -55.1992479100      -18.1851863444  MEMB      311             0.0000000000
     37784       311  POPC      O11            55.6136837163      -56.0891211199      -15.8442195532  MEMB      311             0.0000000000
     37785       311  POPC      C1             54.2134356735      -56.5298445401      -15.8678091428  MEMB      311             0.0000000000
     37786       311  POPC      HA             54.1828959379      -57.6397661426      -15.8295676162  MEMB      311             0.0000000000
     37787       311  POPC      HB             53.7733776521      -56.4227600542      -16.8823054856  MEMB      311             0.0000000000
     37788       311  POPC      C2             53.2374917826      -55.9738225337      -14.7944345342  MEMB      311             0.0000000000
     37789       311  POPC      HS             52.9934703696      -54.9470591316      -15.1416117020  MEMB      311             0.0000000000
     37790       311  POPC      O21            53.9964414833      -55.8552596155      -13.5355789985  MEMB      311             0.0000000000
     37791       311  POPC      C21            53.6752284390      -54.8697768137      -12.7103984703  MEMB      311             0.0000000000
     37792       311  POPC      O22            52.9034334874      -53.9539844027      -13.0759378966  MEMB      311             0.0000000000
     37793       311  POPC      C22            54.3178400981      -55.0366402668      -11.3652226447  MEMB      311             0.0000000000
     37794       311  POPC      H2R            55.4184168897      -54.9407453768      -11.4829332939  MEMB      311             0.0000000000
     37795       311  POPC      H2S            54.2042310569      -56.0790014239      -10.9979388859  MEMB      311             0.0000000000
     37796       311  POPC      C3             51.9663810399      -56.8974103236      -14.4363959624  MEMB      311             0.0000000000
     37797       311  POPC      HX             51.3745470439      -56.9533908839      -15.3749692895  MEMB      311             0.0000000000
     37798       311  POPC      HY             51.3706976256      -56.3472221610      -13.6769387078  MEMB      311             0.0000000000
     37799       311  POPC      O31            52.3561091410      -58.1944478755      -14.0275720872  MEMB      311             0.0000000000
     37800       311  POPC      C31            52.5693513976      -58.2985183391      -12.7643971228  MEMB      311             0.0000000000
     37801       311  POPC      O32            52.2224091840      -57.5221803266      -11.9267562418  MEMB      311             0.0000000000
     37802       311  POPC      C32            53.2886253232      -59.6328153347      -12.5201967860  MEMB      311             0.0000000000
     37803       311  POPC      H2X            53.6845406282      -60.0135823471      -13.4859034177  MEMB      311             0.0000000000
     37804       311  POPC      H2Y            52.6483180505      -60.3961215081      -12.0285763960  MEMB      311             0.0000000000
     37805       311  POPC      C23            53.7374461601      -53.8753737701      -10.4380450019  MEMB      311             0.0000000000
     37806       311  POPC      H3R            53.9634286758      -52.8994516766      -10.9184921697  MEMB      311             0.0000000000
     37807       311  POPC      H3S            54.4076244278      -54.0863937460       -9.5774333770  MEMB      311             0.0000000000
     37808       311  POPC      C24            52.3359023580      -54.0634683312       -9.9148628083  MEMB      311             0.0000000000
     37809       311  POPC      H4R            51.9436347525      -55.0863325885      -10.0997844455  MEMB      311             0.0000000000
     37810       311  POPC      H4S            51.6948522429      -53.3057254917      -10.4140631510  MEMB      311             0.0000000000
     37811       311  POPC      C25            52.2494574295      -53.7754820558       -8.4403767203  MEMB      311             0.0000000000
     37812       311  POPC      H5R            52.3848695547      -52.7058617755       -8.1722404688  MEMB      311             0.0000000000
     37813       311  POPC      H5S            53.0835637619      -54.2280376477       -7.8626386793  MEMB      311             0.0000000000
     37814       311  POPC      C26            50.9558981452      -54.4550705874       -7.7932156125  MEMB      311             0.0000000000
     37815       311  POPC      H6R            50.8899145111      -55.4474078379       -8.2884269532  MEMB      311             0.0000000000
     37816       311  POPC      H6S            50.0415915271      -53.9344218324       -8.1499921674  MEMB      311             0.0000000000
     37817       311  POPC      C27            51.0251923602      -54.6008004308       -6.2779696053  MEMB      311             0.0000000000
     37818       311  POPC      H7R            50.0546567439      -55.0443045766       -5.9686377585  MEMB      311             0.0000000000
     37819       311  POPC      H7S            51.1181180014      -53.5510010171       -5.9263906152  MEMB      311             0.0000000000
     37820       311  POPC      C28            52.1990673874      -55.4103237295       -5.6940516257  MEMB      311             0.0000000000
     37821       311  POPC      H8R            52.0438958465      -55.2675113651       -4.6032504415  MEMB      311             0.0000000000
     37822       311  POPC      H8S            53.1387596870      -54.8252472956       -5.7888412937  MEMB      311             0.0000000000
     37823       311  POPC      C29            52.3447518340      -56.8010667519       -6.2326264642  MEMB      311             0.0000000000
     37824       311  POPC      H91            52.5262336223      -56.7588197335       -7.3167295875  MEMB      311             0.0000000000
     37825       311  POPC      C210           52.2239247688      -57.9432545936       -5.6211308811  MEMB      311             0.0000000000
     37826       311  POPC      H101           52.4132569978      -58.8918256305       -6.1449309808  MEMB      311             0.0000000000
     37827       311  POPC      C211           51.9134853378      -58.1865617560       -4.1355278568  MEMB      311             0.0000000000
     37828       311  POPC      H11R           50.8531301458      -57.9502992803       -3.9028298490  MEMB      311             0.0000000000
     37829       311  POPC      H11S           52.5168145101      -57.5420608763       -3.4610400593  MEMB      311             0.0000000000
     37830       311  POPC      C212           52.1522141334      -59.6492793042       -3.6314966212  MEMB      311             0.0000000000
     37831       311  POPC      H12R           51.5059342532      -60.4593046064       -4.0321254874  MEMB      311             0.0000000000
     37832       311  POPC      H12S           52.1229926482      -59.8479686641       -2.5387978533  MEMB      311             0.0000000000
     37833       311  POPC      C213           53.5015038248      -60.2680915138       -4.0179283719  MEMB      311             0.0000000000
     37834       311  POPC      H13R           53.6574696971      -60.1962567089       -5.1155784842  MEMB      311             0.0000000000
     37835       311  POPC      H13S           53.5752599110      -61.3525790173       -3.7882161431  MEMB      311             0.0000000000
     37836       311  POPC      C214           54.7692405525      -59.4543242468       -3.5310357620  MEMB      311             0.0000000000
     37837       311  POPC      H14R           54.6321922166      -59.2491801898       -2.4477741773  MEMB      311             0.0000000000
     37838       311  POPC      H14S           54.8821225341      -58.4845419028       -4.0612259278  MEMB      311             0.0000000000
     37839       311  POPC      C215           56.1012819613      -60.1974172923       -3.8308307045  MEMB      311             0.0000000000
     37840       311  POPC      H15R           56.3070506821      -60.3194605409       -4.9157668878  MEMB      311             0.0000000000
     37841       311  POPC      H15S           56.2529980612      -61.1318470890       -3.2493294966  MEMB      311             0.0000000000
     37842       311  POPC      C216           57.3648193754      -59.3763795766       -3.4677871223  MEMB      311             0.0000000000
     37843       311  POPC      H16R           57.4117875858      -58.4722297512       -4.1117030830  MEMB      311             0.0000000000
     37844       311  POPC      H16S           58.2042876169      -60.0309291667       -3.7858738968  MEMB      311             0.0000000000
     37845       311  POPC      C217           57.4362267533      -58.7438710629       -2.1094821164  MEMB      311             0.0000000000
     37846       311  POPC      H17R           57.4515477040      -59.5819979140       -1.3803527924  MEMB      311             0.0000000000
     37847       311  POPC      H17S           56.4210737537      -58.4063537688       -1.8097030597  MEMB      311             0.0000000000
     37848       311  POPC      C218           58.5756433636      -57.8311127661       -1.8291712986  MEMB      311             0.0000000000
     37849       311  POPC      H18R           58.6408498504      -57.6479703750       -0.7353114743  MEMB      311             0.0000000000
     37850       311  POPC      H18S           58.4651222148      -56.8651163227       -2.3667191585  MEMB      311             0.0000000000
     37851       311  POPC      H18T           59.5305079266      -58.3300794397       -2.1004394691  MEMB      311             0.0000000000
     37852       311  POPC      C33            54.5226971449      -59.3434539168      -11.6006755195  MEMB      311             0.0000000000
     37853       311  POPC      H3X            54.9554425445      -58.3616402553      -11.8889370224  MEMB      311             0.0000000000
     37854       311  POPC      H3Y            55.2756143729      -60.1535733658      -11.7062367509  MEMB      311             0.0000000000
     37855       311  POPC      C34            54.2631841390      -59.1876871719      -10.1162546098  MEMB      311             0.0000000000
     37856       311  POPC      H4X            53.5319894526      -59.9794931272       -9.8465905560  MEMB      311             0.0000000000
     37857       311  POPC      H4Y            53.7637505219      -58.2100579025       -9.9455853002  MEMB      311             0.0000000000
     37858       311  POPC      C35            55.5660507969      -59.3146547370       -9.2820295440  MEMB      311             0.0000000000
     37859       311  POPC      H5X            56.0093050272      -60.3243043702       -9.4178752346  MEMB      311             0.0000000000
     37860       311  POPC      H5Y            55.2986091556      -59.1966744850       -8.2101726839  MEMB      311             0.0000000000
     37861       311  POPC      C36            56.5860498548      -58.2727514950       -9.6190868497  MEMB      311             0.0000000000
     37862       311  POPC      H6X            56.1513625714      -57.2558330978       -9.7251307943  MEMB      311             0.0000000000
     37863       311  POPC      H6Y            56.8778090991      -58.5593343197      -10.6520765224  MEMB      311             0.0000000000
     37864       311  POPC      C37            57.7840172978      -58.0913009634       -8.6474688538  MEMB      311             0.0000000000
     37865       311  POPC      H7X            58.4405848441      -57.3945181977       -9.2111485674  MEMB      311             0.0000000000
     37866       311  POPC      H7Y            58.2845527499      -59.0751928230       -8.5220024664  MEMB      311             0.0000000000
     37867       311  POPC      C38            57.4593840485      -57.4265871347       -7.2606920678  MEMB      311             0.0000000000
     37868       311  POPC      H8X            58.3068156319      -57.3607225470       -6.5452604914  MEMB      311             0.0000000000
     37869       311  POPC      H8Y            56.8366685333      -58.2518556783       -6.8539015569  MEMB      311             0.0000000000
     37870       311  POPC      C39            56.7131299926      -56.1549077330       -7.2682287227  MEMB      311             0.0000000000
     37871       311  POPC      H9X            56.3599754813      -56.0449820468       -6.2206023158  MEMB      311             0.0000000000
     37872       311  POPC      H9Y            55.8700765313      -56.1412942950       -7.9916896112  MEMB      311             0.0000000000
     37873       311  POPC      C310           57.5756475660      -54.9594088991       -7.5671795004  MEMB      311             0.0000000000
     37874       311  POPC      H10X           58.0481668201      -55.0153943807       -8.5711274500  MEMB      311             0.0000000000
     37875       311  POPC      H10Y           58.4535789721      -54.8468289690       -6.8957004063  MEMB      311             0.0000000000
     37876       311  POPC      C311           56.6950959305      -53.6665285407       -7.5517284505  MEMB      311             0.0000000000
     37877       311  POPC      H11X           55.6119710760      -53.8599691952       -7.7058140812  MEMB      311             0.0000000000
     37878       311  POPC      H11Y           56.9732683991      -53.0691452316       -8.4461975414  MEMB      311             0.0000000000
     37879       311  POPC      C312           56.8874527029      -52.7597221044       -6.3835627065  MEMB      311             0.0000000000
     37880       311  POPC      H12X           56.1372802240      -51.9527374409       -6.5261738067  MEMB      311             0.0000000000
     37881       311  POPC      H12Y           57.8741839903      -52.2522537911       -6.3273662631  MEMB      311             0.0000000000
     37882       311  POPC      C313           56.5533803964      -53.5918481437       -5.0538508798  MEMB      311             0.0000000000
     37883       311  POPC      H13X           57.2675442765      -54.4381085886       -4.9636610180  MEMB      311             0.0000000000
     37884       311  POPC      H13Y           55.5083350063      -53.9562774106       -5.1507670724  MEMB      311             0.0000000000
     37885       311  POPC      C314           56.5644501956      -52.6729637264       -3.7770316426  MEMB      311             0.0000000000
     37886       311  POPC      H14X           55.6475056075      -52.0468690142       -3.7378001710  MEMB      311             0.0000000000
     37887       311  POPC      H14Y           57.4480059959      -52.0031754451       -3.8479844599  MEMB      311             0.0000000000
     37888       311  POPC      C315           56.5208436768      -53.3837629643       -2.3946795076  MEMB      311             0.0000000000
     37889       311  POPC      H15X           56.1389522488      -52.5729515540       -1.7381240707  MEMB      311             0.0000000000
     37890       311  POPC      H15Y           57.5803069776      -53.5056774389       -2.0832376833  MEMB      311             0.0000000000
     37891       311  POPC      C316           55.6983182133      -54.6479297462       -2.3084934546  MEMB      311             0.0000000000
     37892       311  POPC      H16X           55.5372366746      -55.0874616210       -1.3009306324  MEMB      311             0.0000000000
     37893       311  POPC      H16Y           56.2895002883      -55.3381487397       -2.9475736710  MEMB      311             0.0000000000
     37894       311  POPC      H16Z           54.7026614827      -54.6504271146       -2.8014266471  MEMB      311             0.0000000000
     37895       312  POPC      N             -56.0875433511      -58.6098666362      -19.0484773147  MEMB      312             0.0000000000
     37896       312  POPC      C12           -55.0377323993      -59.0778442118      -20.1428764635  MEMB      312             0.0000000000
     37897       312  POPC      H12A          -54.7064042853      -58.1553230406      -20.5962818511  MEMB      312             0.0000000000
     37898       312  POPC      H12B          -55.6579065880      -59.5519456049      -20.8892086357  MEMB      312             0.0000000000
     37899       312  POPC      C13           -55.3552233589      -57.7209244972      -18.0873542506  MEMB      312             0.0000000000
     37900       312  POPC      H13A          -54.6291708112      -58.2170593338      -17.4603790918  MEMB      312             0.0000000000
     37901       312  POPC      H13B          -54.8648869162      -56.8794654250      -18.5541698004  MEMB      312             0.0000000000
     37902       312  POPC      H13C          -56.0931727633      -57.2588650290      -17.4483459874  MEMB      312             0.0000000000
     37903       312  POPC      C14           -57.1403858224      -57.8069249198      -19.7580802610  MEMB      312             0.0000000000
     37904       312  POPC      H14A          -57.7258307126      -58.4861788252      -20.3599675941  MEMB      312             0.0000000000
     37905       312  POPC      H14B          -57.7122995417      -57.2755503914      -19.0117856066  MEMB      312             0.0000000000
     37906       312  POPC      H14C          -56.7386136004      -57.1480173749      -20.5136063525  MEMB      312             0.0000000000
     37907       312  POPC      C15           -56.7164059403      -59.7986061205      -18.2942706600  MEMB      312             0.0000000000
     37908       312  POPC      H15A          -57.0280360418      -60.4740778299      -19.0772297816  MEMB      312             0.0000000000
     37909       312  POPC      H15B          -57.5273288054      -59.4257439906      -17.6861769615  MEMB      312             0.0000000000
     37910       312  POPC      H15C          -55.9548914998      -60.3229674010      -17.7361120765  MEMB      312             0.0000000000
     37911       312  POPC      C11           -53.8518523651      -60.0301009989      -19.8173139449  MEMB      312             0.0000000000
     37912       312  POPC      H11A          -53.2820347181      -60.2957752336      -20.7333086437  MEMB      312             0.0000000000
     37913       312  POPC      H11B          -54.3438787321      -60.9646760780      -19.4726395169  MEMB      312             0.0000000000
     37914       312  POPC      P             -51.8913904406      -58.4469162330      -18.8320894844  MEMB      312             0.0000000000
     37915       312  POPC      O13           -52.2399603519      -57.4565276370      -19.9233794321  MEMB      312             0.0000000000
     37916       312  POPC      O14           -50.7093663214      -59.2095536999      -19.0262481738  MEMB      312             0.0000000000
     37917       312  POPC      O12           -53.0423870425      -59.5131283971      -18.6583945444  MEMB      312             0.0000000000
     37918       312  POPC      O11           -51.8970153076      -57.7528059475      -17.4115154704  MEMB      312             0.0000000000
     37919       312  POPC      C1            -51.0573607781      -58.1635019057      -16.3299931936  MEMB      312             0.0000000000
     37920       312  POPC      HA            -50.0072991689      -57.8445675089      -16.5031185440  MEMB      312             0.0000000000
     37921       312  POPC      HB            -51.0045071500      -59.2683485318      -16.2258702034  MEMB      312             0.0000000000
     37922       312  POPC      C2            -51.7550072598      -57.6564115018      -14.9680811218  MEMB      312             0.0000000000
     37923       312  POPC      HS            -51.2108566424      -58.1425665390      -14.1303016027  MEMB      312             0.0000000000
     37924       312  POPC      O21           -53.1151663830      -58.0411155760      -14.7692920461  MEMB      312             0.0000000000
     37925       312  POPC      C21           -53.2733658342      -59.3169799881      -14.5410709152  MEMB      312             0.0000000000
     37926       312  POPC      O22           -52.4498228993      -60.1528393955      -14.3839939326  MEMB      312             0.0000000000
     37927       312  POPC      C22           -54.7604526571      -59.5868922367      -14.3968445925  MEMB      312             0.0000000000
     37928       312  POPC      H2R           -55.0406405944      -60.6461609598      -14.5805986655  MEMB      312             0.0000000000
     37929       312  POPC      H2S           -55.3699323285      -58.9893333893      -15.1080260871  MEMB      312             0.0000000000
     37930       312  POPC      C3            -51.6608324046      -56.1487227683      -14.8217424437  MEMB      312             0.0000000000
     37931       312  POPC      HX            -52.3004936645      -55.6564206318      -15.5851512047  MEMB      312             0.0000000000
     37932       312  POPC      HY            -50.6525051223      -55.7067416009      -14.9709053931  MEMB      312             0.0000000000
     37933       312  POPC      O31           -52.3053927159      -55.7227924368      -13.5996781403  MEMB      312             0.0000000000
     37934       312  POPC      C31           -51.4474023988      -55.7356479449      -12.5923323345  MEMB      312             0.0000000000
     37935       312  POPC      O32           -50.2130386991      -55.7418696831      -12.6854837636  MEMB      312             0.0000000000
     37936       312  POPC      C32           -52.2659962154      -55.8363316926      -11.3233501953  MEMB      312             0.0000000000
     37937       312  POPC      H2X           -53.2087514976      -56.4193271746      -11.3985132184  MEMB      312             0.0000000000
     37938       312  POPC      H2Y           -52.7954774093      -54.8649920561      -11.2210268381  MEMB      312             0.0000000000
     37939       312  POPC      C23           -55.1224673603      -59.2347035686      -12.9156029230  MEMB      312             0.0000000000
     37940       312  POPC      H3R           -54.8971963209      -58.1519664685      -12.8095160291  MEMB      312             0.0000000000
     37941       312  POPC      H3S           -54.5226606391      -59.8394294428      -12.2022590641  MEMB      312             0.0000000000
     37942       312  POPC      C24           -56.6212515117      -59.4513985014      -12.7607136071  MEMB      312             0.0000000000
     37943       312  POPC      H4R           -56.6816477129      -60.5468584541      -12.9357598002  MEMB      312             0.0000000000
     37944       312  POPC      H4S           -57.1596932805      -58.8843141283      -13.5499011513  MEMB      312             0.0000000000
     37945       312  POPC      C25           -57.1431372208      -59.1725128471      -11.3630086306  MEMB      312             0.0000000000
     37946       312  POPC      H5R           -56.4432394281      -59.6400795991      -10.6378567326  MEMB      312             0.0000000000
     37947       312  POPC      H5S           -58.0990932141      -59.7018518449      -11.1623371781  MEMB      312             0.0000000000
     37948       312  POPC      C26           -57.3853957715      -57.7508602074      -10.9829173768  MEMB      312             0.0000000000
     37949       312  POPC      H6R           -58.2102590840      -57.2806973083      -11.5598646471  MEMB      312             0.0000000000
     37950       312  POPC      H6S           -56.4878477791      -57.1008688958      -11.0619101694  MEMB      312             0.0000000000
     37951       312  POPC      C27           -57.7978385268      -57.6149068334       -9.5105010255  MEMB      312             0.0000000000
     37952       312  POPC      H7R           -58.5847804116      -58.3554410277       -9.2523302558  MEMB      312             0.0000000000
     37953       312  POPC      H7S           -58.2520832192      -56.6200889809       -9.3147450670  MEMB      312             0.0000000000
     37954       312  POPC      C28           -56.6840867679      -57.7880908722       -8.4824635333  MEMB      312             0.0000000000
     37955       312  POPC      H8R           -56.0862055915      -58.6615271851       -8.8200544637  MEMB      312             0.0000000000
     37956       312  POPC      H8S           -56.9537925577      -58.0942797272       -7.4491058465  MEMB      312             0.0000000000
     37957       312  POPC      C29           -55.8678597290      -56.5055101103       -8.4380608778  MEMB      312             0.0000000000
     37958       312  POPC      H91           -55.1429668169      -56.4249486472       -9.2614926471  MEMB      312             0.0000000000
     37959       312  POPC      C210          -56.0143360365      -55.5383806581       -7.5517212607  MEMB      312             0.0000000000
     37960       312  POPC      H101          -55.4387618845      -54.6050919226       -7.6393937049  MEMB      312             0.0000000000
     37961       312  POPC      C211          -56.9745318029      -55.4923094956       -6.4539478380  MEMB      312             0.0000000000
     37962       312  POPC      H11R          -57.8976495388      -56.0840365056       -6.6329280105  MEMB      312             0.0000000000
     37963       312  POPC      H11S          -57.3515161741      -54.4564349668       -6.3155009537  MEMB      312             0.0000000000
     37964       312  POPC      C212          -56.3161192170      -55.8766636894       -5.1191650393  MEMB      312             0.0000000000
     37965       312  POPC      H12R          -56.0555713111      -56.9495032694       -4.9948623414  MEMB      312             0.0000000000
     37966       312  POPC      H12S          -57.0281998037      -55.5823703088       -4.3187570400  MEMB      312             0.0000000000
     37967       312  POPC      C213          -54.9402235779      -55.1197757180       -4.7580009227  MEMB      312             0.0000000000
     37968       312  POPC      H13R          -55.2793847999      -54.0771916534       -4.5782519493  MEMB      312             0.0000000000
     37969       312  POPC      H13S          -54.2834210236      -55.1775424033       -5.6522012697  MEMB      312             0.0000000000
     37970       312  POPC      C214          -54.2542133683      -55.6755328038       -3.4962219530  MEMB      312             0.0000000000
     37971       312  POPC      H14R          -54.3643426727      -56.7782564524       -3.5749165837  MEMB      312             0.0000000000
     37972       312  POPC      H14S          -54.8594758721      -55.3499019402       -2.6233274792  MEMB      312             0.0000000000
     37973       312  POPC      C215          -52.8651827397      -55.0659005603       -3.4745459872  MEMB      312             0.0000000000
     37974       312  POPC      H15R          -52.8784282405      -53.9549983307       -3.4810198984  MEMB      312             0.0000000000
     37975       312  POPC      H15S          -52.1827953314      -55.4073476224       -4.2820620796  MEMB      312             0.0000000000
     37976       312  POPC      C216          -52.2568772246      -55.2857718635       -2.0372344557  MEMB      312             0.0000000000
     37977       312  POPC      H16R          -52.3104515848      -56.3736398340       -1.8181592759  MEMB      312             0.0000000000
     37978       312  POPC      H16S          -52.9317896564      -54.7914793392       -1.3061474107  MEMB      312             0.0000000000
     37979       312  POPC      C217          -50.8379061276      -54.6625208809       -1.9641193497  MEMB      312             0.0000000000
     37980       312  POPC      H17R          -50.4554151361      -54.3926019771       -0.9565636266  MEMB      312             0.0000000000
     37981       312  POPC      H17S          -50.8016788476      -53.7080794941       -2.5316135061  MEMB      312             0.0000000000
     37982       312  POPC      C218          -49.7936650557      -55.5441279444       -2.6837244768  MEMB      312             0.0000000000
     37983       312  POPC      H18R          -49.8957759887      -56.5652442107       -2.2580303122  MEMB      312             0.0000000000
     37984       312  POPC      H18S          -48.7405707401      -55.2557981072       -2.4783477884  MEMB      312             0.0000000000
     37985       312  POPC      H18T          -49.9208557601      -55.6197987007       -3.7848226950  MEMB      312             0.0000000000
     37986       312  POPC      C33           -51.4844913611      -56.0976143497      -10.0330000337  MEMB      312             0.0000000000
     37987       312  POPC      H3X           -50.6394133406      -55.3777375478       -9.9889380366  MEMB      312             0.0000000000
     37988       312  POPC      H3Y           -51.0487471172      -57.1081852614      -10.1852981761  MEMB      312             0.0000000000
     37989       312  POPC      C34           -52.2737899194      -56.0717960002       -8.6837970100  MEMB      312             0.0000000000
     37990       312  POPC      H4X           -53.1216921639      -56.7892763937       -8.6592075336  MEMB      312             0.0000000000
     37991       312  POPC      H4Y           -52.6999596085      -55.0550096291       -8.5465167584  MEMB      312             0.0000000000
     37992       312  POPC      C35           -51.2927287267      -56.2598418543       -7.5017377107  MEMB      312             0.0000000000
     37993       312  POPC      H5X           -51.1136005729      -55.2753407086       -7.0190458541  MEMB      312             0.0000000000
     37994       312  POPC      H5Y           -50.3485763610      -56.8134753984       -7.6924914883  MEMB      312             0.0000000000
     37995       312  POPC      C36           -51.7996057776      -57.1922639826       -6.4528136297  MEMB      312             0.0000000000
     37996       312  POPC      H6X           -52.7774107965      -56.7828069127       -6.1203024223  MEMB      312             0.0000000000
     37997       312  POPC      H6Y           -51.1476792964      -57.2903546697       -5.5585585472  MEMB      312             0.0000000000
     37998       312  POPC      C37           -51.9954776064      -58.6615864205       -6.8353930425  MEMB      312             0.0000000000
     37999       312  POPC      H7X           -51.1378126220      -59.1874455450       -6.3640076828  MEMB      312             0.0000000000
     38000       312  POPC      H7Y           -51.8958608704      -58.7776820706       -7.9358106754  MEMB      312             0.0000000000
     38001       312  POPC      C38           -53.3006994428      -59.1881759499       -6.3715362919  MEMB      312             0.0000000000
     38002       312  POPC      H8X           -54.1478052127      -58.9935078051       -7.0635169995  MEMB      312             0.0000000000
     38003       312  POPC      H8Y           -53.5444380418      -58.7472088571       -5.3813537413  MEMB      312             0.0000000000
     38004       312  POPC      C39           -53.4832755054      -60.6879106672       -6.3112531021  MEMB      312             0.0000000000
     38005       312  POPC      H9X           -52.7635888243      -61.0712143334       -5.5566333416  MEMB      312             0.0000000000
     38006       312  POPC      H9Y           -53.1290723920      -61.2242220679       -7.2174710818  MEMB      312             0.0000000000
     38007       312  POPC      C310          -54.8457087414      -60.9784915685       -5.7356465226  MEMB      312             0.0000000000
     38008       312  POPC      H10X          -55.0437409855      -62.0662564289       -5.8446035252  MEMB      312             0.0000000000
     38009       312  POPC      H10Y          -55.6901359002      -60.4669060876       -6.2451010641  MEMB      312             0.0000000000
     38010       312  POPC      C311          -55.0952123126      -60.5959340037       -4.3084523536  MEMB      312             0.0000000000
     38011       312  POPC      H11X          -56.1044509811      -60.8923394234       -3.9508181474  MEMB      312             0.0000000000
     38012       312  POPC      H11Y          -55.1373652049      -59.5054414352       -4.1001980069  MEMB      312             0.0000000000
     38013       312  POPC      C312          -54.1985232154      -61.2860419331       -3.2671441569  MEMB      312             0.0000000000
     38014       312  POPC      H12X          -53.1960514562      -60.9352249880       -3.5931803871  MEMB      312             0.0000000000
     38015       312  POPC      H12Y          -54.2184072865      -62.3934479514       -3.3541924734  MEMB      312             0.0000000000
     38016       312  POPC      C313          -54.4675178716      -60.7940811776       -1.8675621063  MEMB      312             0.0000000000
     38017       312  POPC      H13X          -55.5057817907      -61.1486317842       -1.6925695955  MEMB      312             0.0000000000
     38018       312  POPC      H13Y          -54.3248416742      -59.6956552594       -1.9537322268  MEMB      312             0.0000000000
     38019       312  POPC      C314          -53.5713797439      -61.3450453585       -0.8042444920  MEMB      312             0.0000000000
     38020       312  POPC      H14X          -52.5026599839      -61.1620284930       -1.0464498306  MEMB      312             0.0000000000
     38021       312  POPC      H14Y          -53.7291738070      -62.4445811123       -0.7831811951  MEMB      312             0.0000000000
     38022       312  POPC      C315          -53.9765028697      -60.8346583688        0.6128005024  MEMB      312             0.0000000000
     38023       312  POPC      H15X          -53.4455027881      -61.5369175112        1.2904370024  MEMB      312             0.0000000000
     38024       312  POPC      H15Y          -55.0686145938      -60.8162310218        0.8159573836  MEMB      312             0.0000000000
     38025       312  POPC      C316          -53.3722410422      -59.4279619900        0.9957094122  MEMB      312             0.0000000000
     38026       312  POPC      H16X          -52.3010170018      -59.2972715816        0.7316636090  MEMB      312             0.0000000000
     38027       312  POPC      H16Y          -53.6286191059      -59.3056662979        2.0697826566  MEMB      312             0.0000000000
     38028       312  POPC      H16Z          -54.0165261684      -58.6651202232        0.5085842364  MEMB      312             0.0000000000
