* GENERATED BY CHARMM-GUI (HTTP://WWW.CHARMM-GUI.ORG) V3.7 ON JUN, 01. 2026. JOB
* GENERATES ION CONFORMATION USING MONTE-CARLO SIMULATION
*  DATE:     6/ 1/26      0:49:35      CREATED BY USER: charmm-gui
*
       138  EXT
         1         1  POT       POT            27.2200710000      -23.7701510000      -25.7918304000  IONS      1               1.0000000000
         2         2  POT       POT            27.8669720240      -35.3136352886      -33.1241405140  IONS      2               1.0000000000
         3         3  POT       POT            -0.1957612230      -55.9869414900       27.8596485077  IONS      3               1.0000000000
         4         4  POT       POT            31.3925160000       55.4246907000      -30.3294774000  IONS      4               1.0000000000
         5         5  POT       POT           -17.5985276000       34.0151661000      -43.5861041000  IONS      5               1.0000000000
         6         6  POT       POT            -0.7911993020       19.7009749000      -40.7715989000  IONS      6               1.0000000000
         7         7  POT       POT           -24.0179356000       12.3353663000      -37.6520337000  IONS      7               1.0000000000
         8         8  POT       POT           -10.3982337000      -11.9255224000      -24.8903657000  IONS      8               1.0000000000
         9         9  POT       POT           -26.0656761000       46.0236011000      -24.3315571000  IONS      9               1.0000000000
        10        10  POT       POT            -5.7049899300        3.0149473100      -40.1716259000  IONS      10              1.0000000000
        11        11  POT       POT           -17.3518061000        2.1344867100      -26.9462605000  IONS      11              1.0000000000
        12        12  POT       POT            35.4531424000       -2.4915439900       51.5920149000  IONS      12              1.0000000000
        13        13  POT       POT           -56.3745034000       24.1568327000      -24.5178288000  IONS      13              1.0000000000
        14        14  POT       POT            17.1280460000      -47.1941357000       29.8300953000  IONS      14              1.0000000000
        15        15  POT       POT           -11.3294267000       26.4523234000      -43.0344732000  IONS      15              1.0000000000
        16        16  POT       POT            39.9055247087       24.6169028771       50.3967646063  IONS      16              1.0000000000
        17        17  POT       POT            36.1895224000       20.8836078000      -38.9502527000  IONS      17              1.0000000000
        18        18  POT       POT           -27.1614817000      -40.3627068000       39.7379989000  IONS      18              1.0000000000
        19        19  POT       POT            35.0688817920       -7.0417914977      -26.6057773951  IONS      19              1.0000000000
        20        20  POT       POT            21.6030261000      -10.5109190000      -30.0824308000  IONS      20              1.0000000000
        21        21  POT       POT           -43.5458471000      -35.0384440000      -42.1026899000  IONS      21              1.0000000000
        22        22  POT       POT            31.9887053000      -15.9893569000       32.7452477000  IONS      22              1.0000000000
        23        23  POT       POT            16.9306593000       46.8700310000       25.2071142000  IONS      23              1.0000000000
        24        24  POT       POT            37.6730899000      -17.3329554000       35.4174652000  IONS      24              1.0000000000
        25        25  POT       POT           -45.5901619000        7.0180755900       55.4677976000  IONS      25              1.0000000000
        26        26  POT       POT           -56.2443819000      -10.5238288000       46.9469734000  IONS      26              1.0000000000
        27        27  POT       POT            12.7505313000        8.9121013100       35.8140727000  IONS      27              1.0000000000
        28        28  POT       POT           -14.3452744000       37.3512551000      -34.8410389000  IONS      28              1.0000000000
        29        29  POT       POT             0.3361086716      -25.0923877732       53.5687649822  IONS      29              1.0000000000
        30        30  POT       POT           -33.3108059000      -47.6974570000      -44.1444647000  IONS      30              1.0000000000
        31        31  POT       POT             6.9820478100       24.2477555000       32.1492557000  IONS      31              1.0000000000
        32        32  POT       POT            54.5848539991        3.6813401865       27.4939702907  IONS      32              1.0000000000
        33        33  POT       POT           -47.5187485000      -47.6030167000       50.8460873000  IONS      33              1.0000000000
        34        34  POT       POT           -45.5372442000       38.0152493000       33.3114516000  IONS      34              1.0000000000
        35        35  POT       POT            25.5818170000      -57.5952178000      -17.6001050000  IONS      35              1.0000000000
        36        36  POT       POT            47.3357127000       24.8861071000      -35.9092062000  IONS      36              1.0000000000
        37        37  POT       POT           -32.4982602000       29.1148641000      -26.5381999000  IONS      37              1.0000000000
        38        38  POT       POT           -50.9116759000        2.2907613700       52.1456426000  IONS      38              1.0000000000
        39        39  POT       POT           -26.7200559000       22.0999490000      -43.0029010000  IONS      39              1.0000000000
        40        40  POT       POT           -25.3572246000      -42.2610454000       23.2479183000  IONS      40              1.0000000000
        41        41  POT       POT            45.7379208619        6.8824689806       29.1019391894  IONS      41              1.0000000000
        42        42  POT       POT            -2.9461134600      -54.7220654000      -25.2444648000  IONS      42              1.0000000000
        43        43  POT       POT            21.4945711000       29.3998252000      -40.1956264000  IONS      43              1.0000000000
        44        44  POT       POT            -6.5031437584       56.5659459636       47.0660205075  IONS      44              1.0000000000
        45        45  POT       POT            19.2338671000      -48.9700714000       55.8160747000  IONS      45              1.0000000000
        46        46  POT       POT            38.9342925000       -4.2826676400       40.3509328000  IONS      46              1.0000000000
        47        47  POT       POT            56.2525003000      -40.7223982000      -44.1584092000  IONS      47              1.0000000000
        48        48  POT       POT            56.6077483000        3.9005490100      -37.5025559000  IONS      48              1.0000000000
        49        49  POT       POT            41.8643756934      -37.4638144116       43.1380059047  IONS      49              1.0000000000
        50        50  POT       POT            38.7530299000       31.4504710000       36.1620740000  IONS      50              1.0000000000
        51        51  POT       POT            -3.6177855874       36.1647195966       43.6441523090  IONS      51              1.0000000000
        52        52  POT       POT            19.6251479724      -39.1784917586       21.9788252949  IONS      52              1.0000000000
        53        53  POT       POT            -8.4915362900        3.1512423000       40.9663582000  IONS      53              1.0000000000
        54        54  POT       POT            26.6844540000      -45.5950689000       28.9898437000  IONS      54              1.0000000000
        55        55  POT       POT            19.0425466000       -4.8645822900      -20.0603431000  IONS      55              1.0000000000
        56        56  POT       POT            22.2120596000      -24.1132582000       41.5911966000  IONS      56              1.0000000000
        57        57  POT       POT           -36.0768770000       32.0900822000      -39.1086152000  IONS      57              1.0000000000
        58        58  POT       POT           -10.8386516000       12.9069720000      -27.1826945000  IONS      58              1.0000000000
        59        59  POT       POT           -31.4686856000       -3.1478441400      -42.1823278000  IONS      59              1.0000000000
        60        60  POT       POT            -7.5753266500       -2.5878691900      -31.6299126000  IONS      60              1.0000000000
        61        61  POT       POT            36.1786361000      -18.4768523000       27.4216998000  IONS      61              1.0000000000
        62        62  POT       POT           -49.5243833000       33.9977502000      -40.9986029000  IONS      62              1.0000000000
        63        63  POT       POT           -47.8212073000       10.6337844000       41.8204611000  IONS      63              1.0000000000
        64        64  POT       POT            33.9829040393      -33.1061516931      -39.7814869972  IONS      64              1.0000000000
        65        65  POT       POT           -30.0381861000       40.7749003000       39.6635337000  IONS      65              1.0000000000
        66        66  POT       POT            42.8960334000      -36.4604308000      -30.8620293000  IONS      66              1.0000000000
        67        67  POT       POT            56.7558326000       56.1506415000       50.5712318000  IONS      67              1.0000000000
        68        68  POT       POT           -58.7229130000       -1.3764160300      -16.7081408000  IONS      68              1.0000000000
        69        69  POT       POT            18.0835412000       30.5096581000       24.8066033000  IONS      69              1.0000000000
        70        70  POT       POT            21.3903044000      -33.2564232000      -43.3570895000  IONS      70              1.0000000000
        71        71  POT       POT            33.3497737000       12.3108643000       36.3356416000  IONS      71              1.0000000000
        72        72  CLA       CLA           -29.0742129000       40.7112776000      -40.0175831000  IONS      72             -1.0000000000
        73        73  CLA       CLA            52.3174772000      -39.6858565000       28.0801838000  IONS      73             -1.0000000000
        74        74  CLA       CLA           -53.8921665000        5.2568240800      -29.0613183000  IONS      74             -1.0000000000
        75        75  CLA       CLA            15.0089085000       42.4726486000      -40.2203456000  IONS      75             -1.0000000000
        76        76  CLA       CLA            35.3617195000       27.6315164000       31.5858523000  IONS      76             -1.0000000000
        77        77  CLA       CLA           -42.4598206701       28.4462366370      -28.3727375912  IONS      77             -1.0000000000
        78        78  CLA       CLA            37.3383198000       24.4155452000       46.3887458000  IONS      78             -1.0000000000
        79        79  CLA       CLA           -14.1108725000       -3.1484593100      -41.6270859000  IONS      79             -1.0000000000
        80        80  CLA       CLA           -16.2047878000      -37.7062863000       32.8406896000  IONS      80             -1.0000000000
        81        81  CLA       CLA            37.9847908000       46.4880110000      -22.3280544000  IONS      81             -1.0000000000
        82        82  CLA       CLA            32.6043090000      -12.3740607000       41.3018758000  IONS      82             -1.0000000000
        83        83  CLA       CLA            31.4952070000       26.5969954000       31.7852313000  IONS      83             -1.0000000000
        84        84  CLA       CLA            43.7367419000       24.2651238000       44.2202669000  IONS      84             -1.0000000000
        85        85  CLA       CLA            43.7298489000       49.4166952000      -37.2192911000  IONS      85             -1.0000000000
        86        86  CLA       CLA           -44.8480652000      -23.7857682000      -29.4087401000  IONS      86             -1.0000000000
        87        87  CLA       CLA            22.1850031965      -56.9448658804       25.0392783988  IONS      87             -1.0000000000
        88        88  CLA       CLA           -54.0787674000      -28.6317614000      -34.9251940000  IONS      88             -1.0000000000
        89        89  CLA       CLA            11.7939758000       10.6335298000       45.5023838000  IONS      89             -1.0000000000
        90        90  CLA       CLA            21.3098549000        9.0813365100       50.0679213000  IONS      90             -1.0000000000
        91        91  CLA       CLA           -57.9773671000      -29.5529427000       31.9936502000  IONS      91             -1.0000000000
        92        92  CLA       CLA            10.4739397000       45.8583027000       40.1878479000  IONS      92             -1.0000000000
        93        93  CLA       CLA             9.3478864368       13.2353358964      -26.8143613290  IONS      93             -1.0000000000
        94        94  CLA       CLA           -34.7429063000       53.8218556000       40.5250672000  IONS      94             -1.0000000000
        95        95  CLA       CLA            -3.0738346600       47.2157462000       25.8873238000  IONS      95             -1.0000000000
        96        96  CLA       CLA            28.1518480971       -8.4104440022       54.0841214418  IONS      96             -1.0000000000
        97        97  CLA       CLA            27.9929245000       49.1596102000       42.9298440000  IONS      97             -1.0000000000
        98        98  CLA       CLA            43.5288830000       50.6670349000       48.1286807000  IONS      98             -1.0000000000
        99        99  CLA       CLA            -9.6373713300      -31.8350750000       29.2448998000  IONS      99             -1.0000000000
       100       100  CLA       CLA            15.1269829000       19.4287795000      -42.5760031000  IONS      100            -1.0000000000
       101       101  CLA       CLA           -21.1485898000      -35.0029053000      -33.0413351000  IONS      101            -1.0000000000
       102       102  CLA       CLA            -6.7877894400       35.9116413000       38.9746439000  IONS      102            -1.0000000000
       103       103  CLA       CLA           -11.1417764000       15.0091603000      -37.7847398000  IONS      103            -1.0000000000
       104       104  CLA       CLA            15.2902528000       44.3175856000       42.4716035000  IONS      104            -1.0000000000
       105       105  CLA       CLA            -6.7494588700       23.5172444000      -21.1877157000  IONS      105            -1.0000000000
       106       106  CLA       CLA            10.7956240000      -36.1090479000      -26.6691704000  IONS      106            -1.0000000000
       107       107  CLA       CLA           -32.3617897880        8.9330507722      -33.9316729726  IONS      107            -1.0000000000
       108       108  CLA       CLA           -13.8284143000       13.4996733000      -31.0990196000  IONS      108            -1.0000000000
       109       109  CLA       CLA           -24.9958399000        9.8489244600       37.6820538000  IONS      109            -1.0000000000
       110       110  CLA       CLA           -46.2732083000       37.5013417000      -33.3107204000  IONS      110            -1.0000000000
       111       111  CLA       CLA           -19.3324023000      -12.5865818000       39.0584821000  IONS      111            -1.0000000000
       112       112  CLA       CLA            -8.6305339203       26.9743068085      -28.4939737819  IONS      112            -1.0000000000
       113       113  CLA       CLA           -48.0985477000       51.7093537000       27.9861498000  IONS      113            -1.0000000000
       114       114  CLA       CLA           -11.7560533000      -17.6296468000      -30.6546209000  IONS      114            -1.0000000000
       115       115  CLA       CLA            -6.9699694400       10.8026417000      -38.7657373000  IONS      115            -1.0000000000
       116       116  CLA       CLA             7.3108304900       50.0039737000       23.7588054000  IONS      116            -1.0000000000
       117       117  CLA       CLA             9.5365768200       29.2670914000       29.7105416000  IONS      117            -1.0000000000
       118       118  CLA       CLA           -16.0299528906      -29.5502109834       51.4920416769  IONS      118            -1.0000000000
       119       119  CLA       CLA            27.1757615000      -19.6654902000       52.9779874000  IONS      119            -1.0000000000
       120       120  CLA       CLA           -15.2334573000       10.5311857000      -41.7840789000  IONS      120            -1.0000000000
       121       121  CLA       CLA            40.1365972000       19.0475369000       48.5567508000  IONS      121            -1.0000000000
       122       122  CLA       CLA           -20.0119339000      -40.2749517000       26.7405163000  IONS      122            -1.0000000000
       123       123  CLA       CLA           -11.5574545000       45.1706454000       36.5156331000  IONS      123            -1.0000000000
       124       124  CLA       CLA            27.4439343000      -15.9977738000       27.0668260000  IONS      124            -1.0000000000
       125       125  CLA       CLA           -14.5540366000      -39.0004805000      -43.3235644000  IONS      125            -1.0000000000
       126       126  CLA       CLA           -25.0358704867      -51.9503804158       40.7508602782  IONS      126            -1.0000000000
       127       127  CLA       CLA           -10.5068555957       -3.4808602835      -34.6940225192  IONS      127            -1.0000000000
       128       128  CLA       CLA            54.5634950000       51.0317295000      -42.3537927000  IONS      128            -1.0000000000
       129       129  CLA       CLA             5.5154745606      -31.4881568888      -35.1341493001  IONS      129            -1.0000000000
       130       130  CLA       CLA            51.1010948000       -0.5749679950       54.5526889000  IONS      130            -1.0000000000
       131       131  CLA       CLA            -6.0187327100       22.6164320000      -39.8582874000  IONS      131            -1.0000000000
       132       132  CLA       CLA           -55.8136140000      -19.6343039000       42.0849601000  IONS      132            -1.0000000000
       133       133  CLA       CLA           -50.0189170000      -23.6636949000       34.2415058000  IONS      133            -1.0000000000
       134       134  CLA       CLA            40.9866038001       11.7407495189      -25.2926073067  IONS      134            -1.0000000000
       135       135  CLA       CLA            30.7005693000       25.9608990000       42.7541136000  IONS      135            -1.0000000000
       136       136  CLA       CLA            34.6734278000      -44.5285100000       32.4883451000  IONS      136            -1.0000000000
       137       137  CLA       CLA           -17.8495842000       32.3245346000      -38.0080562000  IONS      137            -1.0000000000
       138       138  CLA       CLA           -17.2834353000       55.2510287000      -33.7159699000  IONS      138            -1.0000000000
